LAMMPS data file via write_data, version 3 Mar 2020, timestep = 1000000

22 atoms
7 atom types
21 bonds
21 bond types
36 angles
36 angle types
58 dihedrals
58 dihedral types

-2.5000000000000000e+01 2.5000000000000000e+01 xlo xhi
-2.5000000000000000e+01 2.5000000000000000e+01 ylo yhi
-2.5000000000000000e+01 2.5000000000000000e+01 zlo zhi

Masses

1 1.008
2 12.01
3 12.01
4 16
5 14.01
6 1.008
7 1.008

Atoms # full

3 1 1 1.1230000000000000e-01 -3.6143730448843527e+00 -2.4210430173770989e+00 -2.5910277073347823e+00 0 0 0
7 2 5 -4.1570000000000001e-01 -1.0447996560665165e+00 -8.6849484616911377e-01 -1.9415322110242546e+00 0 0 0
1 1 1 1.1230000000000000e-01 -4.1038278875642940e+00 -1.9924849228248831e+00 -9.7554821537038805e-01 0 0 0
5 1 3 5.9719999999999995e-01 -2.4021652724366840e+00 -8.3693757302729888e-01 -1.8353521361689800e+00 0 0 0
2 1 2 -3.6620000000000003e-01 -3.2001115206949797e+00 -2.1157968275736381e+00 -1.6300099324429387e+00 0 0 0
4 1 1 1.1230000000000000e-01 -2.5560485101839570e+00 -2.8985592024746656e+00 -1.3403221796969327e+00 0 0 0
8 2 6 2.7189999999999998e-01 -7.3027609448971165e-01 -1.7917728177860810e+00 -1.7819377436886643e+00 0 0 0
10 2 7 8.2299999999999998e-02 -4.2611655203267806e-01 1.1089382060654749e+00 -2.3035027383007196e+00 0 0 0
13 2 1 6.0299999999999999e-02 -9.6410852960613425e-01 6.5774258103948080e-01 5.5318739014981771e-02 0 0 0
9 2 2 3.3700000000000001e-02 -3.7070086950598963e-02 1.9119379105172707e-01 -1.7262510316071649e+00 0 0 0
6 1 4 -5.6789999999999996e-01 -2.9564727885104167e+00 2.4230335717225368e-01 -1.6567618740089991e+00 0 0 0
15 2 3 5.9730000000000005e-01 1.3006482473213781e+00 -2.4310218325148703e-01 -2.4191161349100394e+00 0 0 0
14 2 1 6.0299999999999999e-02 5.1641041569313972e-01 -2.6780729441248247e-01 1.6145794924347739e-01 0 0 0
16 2 4 -5.6789999999999996e-01 1.2943467068861223e+00 -1.3027912556523069e+00 -3.0673688180412255e+00 0 0 0
21 3 7 9.7600000000000006e-02 4.0210128775964176e+00 -6.0599299910890114e-01 -2.7720854302823428e+00 0 0 0
12 2 1 6.0299999999999999e-02 5.2599333664690984e-01 1.4353016223368094e+00 -1.8475522831030389e-01 0 0 0
20 3 7 9.7600000000000006e-02 4.3751270900079398e+00 9.8291511236671192e-01 -2.6097816830798042e+00 0 0 0
11 2 2 -1.8250000000000000e-01 1.6758399479752106e-02 5.3595847913284578e-01 -3.1966045292106410e-01 0 0 0
19 3 2 -1.4899999999999999e-01 3.6231299205265413e+00 3.5830936227261662e-01 -3.0080837779352136e+00 0 0 0
18 3 6 2.7189999999999998e-01 2.2208030433435764e+00 1.4507505264152472e+00 -1.8876161067590891e+00 0 0 0
17 3 5 -4.1570000000000001e-01 2.3135688856503056e+00 5.8673299302323956e-01 -2.3715814475094117e+00 0 0 0
22 3 7 9.7600000000000006e-02 3.5746248791284390e+00 4.7958869744090976e-01 -4.1044082065699499e+00 0 0 0

Velocities

3 3.4850802633476516e-03 6.4212933716601632e-04 7.5208849236340584e-03
7 -6.7821257046095434e-03 -1.3315808496762616e-03 8.0285703360537010e-03
1 -4.6759234711768252e-03 3.5618623693734031e-02 -1.8139926498639214e-02
5 3.9165219192154131e-03 -2.2101116963651368e-03 -3.2379143194943868e-03
2 7.6802305641336778e-03 9.0432310274425488e-03 1.4451439495178752e-03
4 -4.6688859129905877e-02 -1.4778264636714193e-02 -4.4820954190224624e-02
8 2.9249316213258450e-02 6.3776884654354622e-03 -8.9641710242795783e-03
10 -2.8393446730129872e-02 2.8780270239814703e-02 8.0787017908286237e-03
13 -7.4282329004849400e-04 -8.6741350345947571e-03 1.2971780308844343e-02
9 1.1043754614291973e-03 3.7510660950118954e-03 -1.7276173301961862e-03
6 2.3764847928522061e-03 -5.4129527534888906e-03 -5.6584386864060284e-03
15 -1.2567933725958086e-03 -5.5531956231753268e-03 3.4485810717178669e-03
14 -1.7002350927634437e-02 3.7484733640283339e-03 -2.1390371929230961e-02
16 -3.8153641881616511e-03 -2.3584845938853051e-04 3.8580514499122602e-03
21 -1.1575088527698927e-02 3.2464718547906405e-03 -1.8403117540311258e-02
12 -1.9625112539791646e-02 -5.5458234058711510e-03 1.6125420657961138e-02
20 2.4176644435773206e-02 -2.3240034422828341e-02 2.0168961371122725e-02
11 4.5314443730363830e-03 2.5822807765918036e-03 -6.7067417969444527e-03
19 5.0919030541512382e-04 -3.1480590185248153e-03 1.1738211681697670e-03
18 1.5404650727006640e-02 -1.5604991818451867e-02 -2.7986990012909881e-03
17 7.7010021011489501e-04 7.2891873964865586e-04 2.6948692606362920e-03
22 -3.3625909639361767e-02 3.4267811331888547e-02 -4.0354320890491182e-03

Bonds

1 7 7 8
2 8 7 9
3 1 1 2
4 5 5 6
5 6 5 7
6 2 2 3
7 3 2 4
8 4 2 5
9 9 9 10
10 10 9 11
11 11 9 15
12 15 15 16
13 16 15 17
14 12 11 12
15 13 11 13
16 14 11 14
17 19 19 20
18 20 19 21
19 21 19 22
20 17 17 18
21 18 17 19

Angles

1 9 5 7 8
2 10 5 7 9
3 15 8 7 9
4 4 2 5 6
5 5 2 5 7
6 11 6 5 7
7 1 1 2 3
8 2 1 2 4
9 3 1 2 5
10 6 3 2 4
11 7 3 2 5
12 8 4 2 5
13 12 7 9 10
14 13 7 9 11
15 14 7 9 15
16 21 10 9 11
17 22 10 9 15
18 23 11 9 15
19 19 9 15 16
20 20 9 15 17
21 29 16 15 17
22 16 9 11 12
23 17 9 11 13
24 18 9 11 14
25 24 12 11 13
26 25 12 11 14
27 26 13 11 14
28 30 17 19 20
29 31 17 19 21
30 32 17 19 22
31 34 20 19 21
32 35 20 19 22
33 36 21 19 22
34 27 15 17 18
35 28 15 17 19
36 33 18 17 19

Dihedrals

1 6 2 7 5 6
2 13 5 7 9 10
3 14 5 7 9 11
4 15 5 7 9 11
5 16 5 7 9 11
6 17 5 7 9 15
7 18 5 7 9 15
8 30 8 7 9 10
9 31 8 7 9 11
10 32 8 7 9 15
11 4 2 5 7 8
12 5 2 5 7 9
13 20 6 5 7 8
14 21 6 5 7 8
15 22 6 5 7 9
16 1 1 2 5 6
17 2 1 2 5 6
18 3 1 2 5 7
19 7 3 2 5 6
20 8 3 2 5 6
21 9 3 2 5 7
22 10 4 2 5 6
23 11 4 2 5 6
24 12 4 2 5 7
25 19 5 9 7 8
26 23 7 9 11 12
27 24 7 9 11 13
28 25 7 9 11 14
29 26 7 9 15 16
30 27 7 9 15 17
31 28 7 9 15 17
32 29 7 9 15 17
33 36 10 9 11 12
34 37 10 9 11 13
35 38 10 9 11 14
36 39 10 9 15 16
37 40 10 9 15 16
38 41 10 9 15 17
39 42 11 9 15 16
40 43 11 9 15 17
41 44 11 9 15 17
42 45 11 9 15 17
43 46 15 9 11 12
44 47 15 9 11 13
45 48 15 9 11 14
46 33 9 15 17 18
47 34 9 15 17 19
48 53 16 15 17 18
49 54 16 15 17 18
50 55 16 15 17 19
51 52 15 19 17 18
52 35 9 17 15 16
53 49 15 17 19 20
54 50 15 17 19 21
55 51 15 17 19 22
56 56 18 17 19 20
57 57 18 17 19 21
58 58 18 17 19 22
