LAMMPS data file via write_data, version 23 Jun 2022, timestep = 1000000

22 atoms
7 atom types
21 bonds
21 bond types
36 angles
36 angle types
58 dihedrals
58 dihedral types

-25 25 xlo xhi
-25 25 ylo yhi
-25 25 zlo zhi

Masses

1 1.008
2 12.01
3 12.01
4 16
5 14.01
6 1.008
7 1.008

Atoms # full

3 1 1 0.1123 1.229945737662565 -0.28576963267741495 -2.7817502084641035 0 0 0
7 2 5 -0.4157 2.930587355073525 0.754093421365875 -4.269924689722474 0 0 0
1 1 1 0.1123 -0.097482119499527 0.4360925386386638 -3.875127408220692 0 0 0
5 1 3 0.5972 1.8171586958533 1.3459718293615166 -3.8604047041043503 0 0 0
2 1 2 -0.3662 0.8109875470123725 0.5737059048741349 -3.1040630003945866 0 0 0
4 1 1 0.1123 0.40588287178787513 1.302269588042962 -2.2906779200657215 0 0 0
8 2 6 0.2719 3.080775902082053 -0.1579845087001968 -4.121743329476132 0 0 0
10 2 7 0.0823 3.707329565761548 2.3652716941865313 -5.361228610539418 0 0 0
13 2 1 0.0603 5.278474588776285 1.0127306280674566 -3.1160066371542707 0 0 0
9 2 2 0.0337 4.065366128611264 1.4660216814447957 -4.904144940655306 0 0 0
6 1 4 -0.5679 1.7030064764111257 2.594898611882026 -3.9920857071238864 0 0 0
15 2 3 0.5973000000000001 4.630883904429704 0.5452691714959795 -6.010326451458806 0 0 0
14 2 1 0.0603 6.047621905478676 2.2191943984258384 -4.340906246266168 0 0 0
16 2 4 -0.5679 4.682579113726584 -0.6784415736455975 -5.771626250189717 0 0 0
21 3 7 0.09760000000000001 4.690452288688019 -0.02004138724638374 -8.967703493633634 0 0 0
12 2 1 0.0603 4.863220826272879 2.693420702208869 -3.1593782387123586 0 0 0
20 3 7 0.09760000000000001 6.091606159517118 -0.3684025160589863 -8.082705875927308 0 0 0
11 2 2 -0.1825 5.134522228416051 1.817107026851784 -3.7886769972590293 0 0 0
19 3 2 -0.149 5.472134310222149 0.475658785343452 -8.389023477642997 0 0 0
18 3 6 0.2719 4.81983283767319 2.1827069723979107 -7.382251153779781 0 0 0
17 3 5 -0.4157 4.970487850221123 1.138761476630341 -7.223422061402121 0 0 0
22 3 7 0.09760000000000001 6.118563932220963 1.061217926848776 -9.018401159710736 0 0 0

Velocities

3 -0.003429439192099994 0.007317418486156577 -0.001936408689090726
7 -0.00021181979528118425 0.0032355617989905066 0.0021552500459862084
1 0.027448679528264144 -0.04144853231746225 0.02581919564137655
5 -0.0011972375227848645 0.003612811230534255 0.0040384294302888354
2 -0.0020739801978023422 -0.007129465702287603 -0.005436946506039655
4 0.024456344250471246 -5.9781677977233344e-05 0.01718252839606739
8 -0.005317919856512572 0.020006493943835697 0.011179357768838646
10 -0.014637500972822032 -0.022464530641673138 -0.022067088875153344
13 -0.002763417054203198 0.011558949775007548 0.015852650886764425
9 0.005962758102092566 -0.004405491546359621 -0.004520944253345082
6 -0.010292579552448135 0.002838834733023132 -0.004319292255722582
15 -0.0019432740254191434 0.0045211443593585025 0.005396850950477254
14 -0.006249304099929302 -0.0029988981763880602 -0.01671033520786843
16 0.0017210620200666343 -0.0022696222122273765 0.0014054541998993065
21 0.011817335075003732 -0.016120364579198854 0.01389319457269701
12 0.0009200909123163944 0.021270412726954586 -0.0011429164270201015
20 -0.0074565366609098994 -0.0032871160242600853 -0.008890178487048832
11 0.008897581133946078 -0.0020305723018027196 0.0015054826171924454
19 0.001194730137783567 0.0037893609797254035 0.009326426881954114
18 0.009732314851301655 -0.014979598215314631 -0.01320186225456458
17 0.005056637042692203 -0.002116938787786371 -0.004096678889040046
22 0.0016174747178478593 -0.0021877926965151546 0.01513596284453391

Bonds

1 7 7 8
2 8 7 9
3 1 1 2
4 5 5 6
5 6 5 7
6 2 2 3
7 3 2 4
8 4 2 5
9 9 9 10
10 10 9 11
11 11 9 15
12 15 15 16
13 16 15 17
14 12 11 12
15 13 11 13
16 14 11 14
17 19 19 20
18 20 19 21
19 21 19 22
20 17 17 18
21 18 17 19

Angles

1 9 5 7 8
2 10 5 7 9
3 15 8 7 9
4 4 2 5 6
5 5 2 5 7
6 11 6 5 7
7 1 1 2 3
8 2 1 2 4
9 3 1 2 5
10 6 3 2 4
11 7 3 2 5
12 8 4 2 5
13 12 7 9 10
14 13 7 9 11
15 14 7 9 15
16 21 10 9 11
17 22 10 9 15
18 23 11 9 15
19 19 9 15 16
20 20 9 15 17
21 29 16 15 17
22 16 9 11 12
23 17 9 11 13
24 18 9 11 14
25 24 12 11 13
26 25 12 11 14
27 26 13 11 14
28 30 17 19 20
29 31 17 19 21
30 32 17 19 22
31 34 20 19 21
32 35 20 19 22
33 36 21 19 22
34 27 15 17 18
35 28 15 17 19
36 33 18 17 19

Dihedrals

1 6 2 7 5 6
2 13 5 7 9 10
3 14 5 7 9 11
4 15 5 7 9 11
5 16 5 7 9 11
6 17 5 7 9 15
7 18 5 7 9 15
8 30 8 7 9 10
9 31 8 7 9 11
10 32 8 7 9 15
11 4 2 5 7 8
12 5 2 5 7 9
13 20 6 5 7 8
14 21 6 5 7 8
15 22 6 5 7 9
16 1 1 2 5 6
17 2 1 2 5 6
18 3 1 2 5 7
19 7 3 2 5 6
20 8 3 2 5 6
21 9 3 2 5 7
22 10 4 2 5 6
23 11 4 2 5 6
24 12 4 2 5 7
25 19 5 9 7 8
26 23 7 9 11 12
27 24 7 9 11 13
28 25 7 9 11 14
29 26 7 9 15 16
30 27 7 9 15 17
31 28 7 9 15 17
32 29 7 9 15 17
33 36 10 9 11 12
34 37 10 9 11 13
35 38 10 9 11 14
36 39 10 9 15 16
37 40 10 9 15 16
38 41 10 9 15 17
39 42 11 9 15 16
40 43 11 9 15 17
41 44 11 9 15 17
42 45 11 9 15 17
43 46 15 9 11 12
44 47 15 9 11 13
45 48 15 9 11 14
46 33 9 15 17 18
47 34 9 15 17 19
48 53 16 15 17 18
49 54 16 15 17 18
50 55 16 15 17 19
51 52 15 19 17 18
52 35 9 17 15 16
53 49 15 17 19 20
54 50 15 17 19 21
55 51 15 17 19 22
56 56 18 17 19 20
57 57 18 17 19 21
58 58 18 17 19 22
