LAMMPS data file via write_data, version 23 Jun 2022, timestep = 1000000

22 atoms
7 atom types
21 bonds
21 bond types
36 angles
36 angle types
58 dihedrals
58 dihedral types

-25 25 xlo xhi
-25 25 ylo yhi
-25 25 zlo zhi

Masses

1 1.008
2 12.01
3 12.01
4 16
5 14.01
6 1.008
7 1.008

Atoms # full

3 1 1 0.1123 1.336440102520317 -0.29885295831624004 -2.5807678213208223 0 0 0
7 2 5 -0.4157 2.923447435116292 0.7876402071994411 -4.146574433863041 0 0 0
1 1 1 0.1123 0.1555009759893512 0.21103610916747004 -3.852117079055206 0 0 0
5 1 3 0.5972 1.8579686635903452 1.4135639475482713 -3.6794386207483654 0 0 0
2 1 2 -0.3662 0.7908081643801582 0.5695833431749036 -2.994233257199626 0 0 0
4 1 1 0.1123 0.2209118380046728 1.137224845314858 -2.186800822276388 0 0 0
8 2 6 0.2719 3.085598715912446 -0.20910705567295537 -4.0759065773231296 0 0 0
10 2 7 0.0823 3.6730603962754955 2.4108111842483257 -5.3738414599847495 0 0 0
13 2 1 0.0603 5.429680328305183 0.9325547348010663 -3.270142599347756 0 0 0
9 2 2 0.0337 4.022660111702344 1.4615583430665546 -4.871231457994094 0 0 0
6 1 4 -0.5679 1.5676835266597595 2.599104984318506 -3.944444462949329 0 0 0
15 2 3 0.5973000000000001 4.535957559679297 0.5605433230453851 -6.015410245480887 0 0 0
14 2 1 0.0603 5.915824190117894 2.4009095021780165 -4.368224142970987 0 0 0
16 2 4 -0.5679 4.595499433450878 -0.6478731115733413 -5.780232460397849 0 0 0
21 3 7 0.09760000000000001 4.731156069442812 -0.02079067650634632 -8.71362780048727 0 0 0
12 2 1 0.0603 4.606964121080567 2.5873238143499546 -3.229777936767544 0 0 0
20 3 7 0.09760000000000001 6.341199123458899 -0.0776838909706137 -8.018298599200266 0 0 0
11 2 2 -0.1825 5.106522300347757 1.8668272269568267 -3.90000014140864 0 0 0
19 3 2 -0.149 5.481889530302896 0.48964364914429287 -8.32701585665462 0 0 0
18 3 6 0.2719 4.7715474828638955 2.163670346008418 -7.140680286742282 0 0 0
17 3 5 -0.4157 4.905894160386858 1.2237773446963633 -7.1271204346459935 0 0 0
22 3 7 0.09760000000000001 5.788773676289507 1.1191766326807717 -9.006689344696495 0 0 0

Velocities

3 0.007996867303137135 -0.016831879700174576 0.0005124914584198194
7 -0.0038016234945932284 0.0029771268864599077 0.0003792182611599531
1 -0.020012295842015713 -0.011984024295161126 -0.01380345060830029
5 -0.006052264408903638 -0.00795686052677261 -0.0032617475704596866
2 -0.0028614053128998137 -0.004326004682333702 0.002951272878264989
4 -0.01468583220493106 0.017599860574247995 -0.016685571050825042
8 0.02309030545951369 -0.021852859379352566 -0.006758391360464223
10 -0.006342763266677196 -0.007709922107544655 -0.01712922353829533
13 -0.0050579475792057425 -0.0013131536242066886 0.02006405824833813
9 0.004577854321685186 0.004144141208428261 -0.003145007456199297
6 0.0012287327363197816 0.003444752131019458 -0.005056981687531859
15 0.0032018896996056367 -0.006783958126479866 0.004074880793491754
14 -0.0159166051344731 0.0011002150315789078 0.043096615955090366
16 -9.050149815842314e-05 -0.00316659748072872 -0.0007182631274288748
21 -0.02836308730647912 -0.01497534300414374 -0.015594830651542352
12 0.03454495861820926 -0.01042274920329455 -0.022424655232995788
20 0.019634115568498155 -0.011080070710810824 -0.03746564706995558
11 0.004700264408551434 0.0033662758511041973 0.0018658648848496379
19 -0.002181751223820549 0.006145096008686217 0.002255110036971504
18 -0.019526383344509724 -0.005532345857148357 -0.014576377358086274
17 0.0011459550554223975 -0.0035709687266850237 -0.009882881986592894
22 0.008232665476924268 -0.004372374626633177 -0.023184395545078333

Bonds

1 7 7 8
2 8 7 9
3 1 1 2
4 5 5 6
5 6 5 7
6 2 2 3
7 3 2 4
8 4 2 5
9 9 9 10
10 10 9 11
11 11 9 15
12 15 15 16
13 16 15 17
14 12 11 12
15 13 11 13
16 14 11 14
17 19 19 20
18 20 19 21
19 21 19 22
20 17 17 18
21 18 17 19

Angles

1 9 5 7 8
2 10 5 7 9
3 15 8 7 9
4 4 2 5 6
5 5 2 5 7
6 11 6 5 7
7 1 1 2 3
8 2 1 2 4
9 3 1 2 5
10 6 3 2 4
11 7 3 2 5
12 8 4 2 5
13 12 7 9 10
14 13 7 9 11
15 14 7 9 15
16 21 10 9 11
17 22 10 9 15
18 23 11 9 15
19 19 9 15 16
20 20 9 15 17
21 29 16 15 17
22 16 9 11 12
23 17 9 11 13
24 18 9 11 14
25 24 12 11 13
26 25 12 11 14
27 26 13 11 14
28 30 17 19 20
29 31 17 19 21
30 32 17 19 22
31 34 20 19 21
32 35 20 19 22
33 36 21 19 22
34 27 15 17 18
35 28 15 17 19
36 33 18 17 19

Dihedrals

1 6 2 7 5 6
2 13 5 7 9 10
3 14 5 7 9 11
4 15 5 7 9 11
5 16 5 7 9 11
6 17 5 7 9 15
7 18 5 7 9 15
8 30 8 7 9 10
9 31 8 7 9 11
10 32 8 7 9 15
11 4 2 5 7 8
12 5 2 5 7 9
13 20 6 5 7 8
14 21 6 5 7 8
15 22 6 5 7 9
16 1 1 2 5 6
17 2 1 2 5 6
18 3 1 2 5 7
19 7 3 2 5 6
20 8 3 2 5 6
21 9 3 2 5 7
22 10 4 2 5 6
23 11 4 2 5 6
24 12 4 2 5 7
25 19 5 9 7 8
26 23 7 9 11 12
27 24 7 9 11 13
28 25 7 9 11 14
29 26 7 9 15 16
30 27 7 9 15 17
31 28 7 9 15 17
32 29 7 9 15 17
33 36 10 9 11 12
34 37 10 9 11 13
35 38 10 9 11 14
36 39 10 9 15 16
37 40 10 9 15 16
38 41 10 9 15 17
39 42 11 9 15 16
40 43 11 9 15 17
41 44 11 9 15 17
42 45 11 9 15 17
43 46 15 9 11 12
44 47 15 9 11 13
45 48 15 9 11 14
46 33 9 15 17 18
47 34 9 15 17 19
48 53 16 15 17 18
49 54 16 15 17 18
50 55 16 15 17 19
51 52 15 19 17 18
52 35 9 17 15 16
53 49 15 17 19 20
54 50 15 17 19 21
55 51 15 17 19 22
56 56 18 17 19 20
57 57 18 17 19 21
58 58 18 17 19 22
