LAMMPS data file via write_data, version 23 Jun 2022, timestep = 1000000

22 atoms
7 atom types
21 bonds
21 bond types
36 angles
36 angle types
58 dihedrals
58 dihedral types

-25 25 xlo xhi
-25 25 ylo yhi
-25 25 zlo zhi

Masses

1 1.008
2 12.01
3 12.01
4 16
5 14.01
6 1.008
7 1.008

Atoms # full

3 1 1 0.1123 1.2850270124736343 -0.2662652457821948 -2.665477000324821 0 0 0
7 2 5 -0.4157 2.949756560877052 0.7665520693469284 -4.246708994783146 0 0 0
1 1 1 0.1123 0.07753133876915147 0.42011155141286644 -3.756260931862193 0 0 0
5 1 3 0.5972 1.8232358474350419 1.3468780834660623 -3.8650264178702343 0 0 0
2 1 2 -0.3662 0.8199784644471696 0.6104293868147577 -3.0552843963641956 0 0 0
4 1 1 0.1123 0.46385553804001456 1.2867820871875717 -2.3329220206774104 0 0 0
8 2 6 0.2719 3.0130386240470055 -0.21500028448580089 -3.9558016126943545 0 0 0
10 2 7 0.0823 3.7280203727556334 2.284431211088853 -5.408658869575183 0 0 0
13 2 1 0.0603 5.293938739685496 0.9231074841173184 -3.192755690978708 0 0 0
9 2 2 0.0337 4.097724350600569 1.4840202036300523 -4.876983293258956 0 0 0
6 1 4 -0.5679 1.7187549704668748 2.605841945798254 -4.00050605356589 0 0 0
15 2 3 0.5973000000000001 4.628197104871242 0.563695396562212 -5.993313331515225 0 0 0
14 2 1 0.0603 5.943307449033177 2.1514342663493142 -4.319480545919072 0 0 0
16 2 4 -0.5679 4.661881906081662 -0.6439071035057541 -5.78813822889055 0 0 0
21 3 7 0.09760000000000001 4.665193902094844 0.0944009574854571 -8.86448700794033 0 0 0
12 2 1 0.0603 4.728350098169048 2.6497474337208726 -3.0622509160179825 0 0 0
20 3 7 0.09760000000000001 6.162082278503678 -0.30654688092317695 -8.074879177625302 0 0 0
11 2 2 -0.1825 5.151179863331319 1.8272812115017825 -3.786607725404278 0 0 0
19 3 2 -0.149 5.520129143462764 0.4790706173765423 -8.378090526031745 0 0 0
18 3 6 0.2719 4.813416617602193 2.201414938194199 -7.335718396433802 0 0 0
17 3 5 -0.4157 4.951391204971085 1.1519799689811103 -7.209616932259077 0 0 0
22 3 7 0.09760000000000001 6.0380528103522755 1.0345889337471965 -9.044269997282772 0 0 0

Velocities

3 -0.02996558246478025 0.002073539214882558 -0.019497145518053358
7 0.002074923511815841 0.0025861113267856067 0.007404451824802901
1 -0.02172514990670425 0.00231139252100914 -0.02497551448856666
5 0.005001039673168925 -0.0016972224463876445 0.0049719967482481
2 -0.0016805208353428375 0.006989894047846858 -0.0013386621014745363
4 0.018558576813433578 0.005219620197214375 0.014242108454630142
8 0.006247531554680237 0.02270642361622014 -0.018774883569723375
10 -0.00028649752208828637 -0.006257184415117637 -0.013515184816598642
13 0.0048477855293946265 0.010785582742819858 0.0194940380325266
9 -0.004512415779479825 -0.0016047659184878162 0.001055147778986145
6 -0.004186604228410427 -0.000626250776924927 0.002205424945343813
15 0.0068341692204103655 -0.006600684108110501 0.0048463931993543525
14 -0.011688448373476266 0.011739911158987829 -0.028379131525717284
16 0.005713214312684607 -0.001280820537505065 -0.003145155082075356
21 0.0020740198562070834 -0.02694154392810387 0.004389844912176098
12 0.01265596310787778 -0.0018945923209798834 -0.00275369272394467
20 0.0003351662048778972 -0.008400290665535128 -0.01839553410419801
11 -0.007740228462138426 -0.00034807308552028493 -0.0031873296824936883
19 -0.0023789070319475926 0.0017729498834268024 -0.004609468540621804
18 -0.015344088080344409 -0.005451057772804737 0.0006666207688692948
17 -0.0026193991110129663 0.0007641960395024281 -0.00354921294092379
22 0.001174982061782183 0.0029463362011228223 0.009559971033749831

Bonds

1 7 7 8
2 8 7 9
3 1 1 2
4 5 5 6
5 6 5 7
6 2 2 3
7 3 2 4
8 4 2 5
9 9 9 10
10 10 9 11
11 11 9 15
12 15 15 16
13 16 15 17
14 12 11 12
15 13 11 13
16 14 11 14
17 19 19 20
18 20 19 21
19 21 19 22
20 17 17 18
21 18 17 19

Angles

1 9 5 7 8
2 10 5 7 9
3 15 8 7 9
4 4 2 5 6
5 5 2 5 7
6 11 6 5 7
7 1 1 2 3
8 2 1 2 4
9 3 1 2 5
10 6 3 2 4
11 7 3 2 5
12 8 4 2 5
13 12 7 9 10
14 13 7 9 11
15 14 7 9 15
16 21 10 9 11
17 22 10 9 15
18 23 11 9 15
19 19 9 15 16
20 20 9 15 17
21 29 16 15 17
22 16 9 11 12
23 17 9 11 13
24 18 9 11 14
25 24 12 11 13
26 25 12 11 14
27 26 13 11 14
28 30 17 19 20
29 31 17 19 21
30 32 17 19 22
31 34 20 19 21
32 35 20 19 22
33 36 21 19 22
34 27 15 17 18
35 28 15 17 19
36 33 18 17 19

Dihedrals

1 6 2 7 5 6
2 13 5 7 9 10
3 14 5 7 9 11
4 15 5 7 9 11
5 16 5 7 9 11
6 17 5 7 9 15
7 18 5 7 9 15
8 30 8 7 9 10
9 31 8 7 9 11
10 32 8 7 9 15
11 4 2 5 7 8
12 5 2 5 7 9
13 20 6 5 7 8
14 21 6 5 7 8
15 22 6 5 7 9
16 1 1 2 5 6
17 2 1 2 5 6
18 3 1 2 5 7
19 7 3 2 5 6
20 8 3 2 5 6
21 9 3 2 5 7
22 10 4 2 5 6
23 11 4 2 5 6
24 12 4 2 5 7
25 19 5 9 7 8
26 23 7 9 11 12
27 24 7 9 11 13
28 25 7 9 11 14
29 26 7 9 15 16
30 27 7 9 15 17
31 28 7 9 15 17
32 29 7 9 15 17
33 36 10 9 11 12
34 37 10 9 11 13
35 38 10 9 11 14
36 39 10 9 15 16
37 40 10 9 15 16
38 41 10 9 15 17
39 42 11 9 15 16
40 43 11 9 15 17
41 44 11 9 15 17
42 45 11 9 15 17
43 46 15 9 11 12
44 47 15 9 11 13
45 48 15 9 11 14
46 33 9 15 17 18
47 34 9 15 17 19
48 53 16 15 17 18
49 54 16 15 17 18
50 55 16 15 17 19
51 52 15 19 17 18
52 35 9 17 15 16
53 49 15 17 19 20
54 50 15 17 19 21
55 51 15 17 19 22
56 56 18 17 19 20
57 57 18 17 19 21
58 58 18 17 19 22
