LAMMPS data file via write_data, version 23 Jun 2022, timestep = 1000000

22 atoms
7 atom types
21 bonds
21 bond types
36 angles
36 angle types
58 dihedrals
58 dihedral types

-25 25 xlo xhi
-25 25 ylo yhi
-25 25 zlo zhi

Masses

1 1.008
2 12.01
3 12.01
4 16
5 14.01
6 1.008
7 1.008

Atoms # full

3 1 1 0.1123 1.037011447484318 -0.17818865127690445 -2.433026897030566 0 0 0
7 2 5 -0.4157 2.978584879683072 0.9414284264790583 -4.18854872243008 0 0 0
1 1 1 0.1123 0.2510768290921051 0.13833463512702932 -3.974224367110419 0 0 0
5 1 3 0.5972 1.832310084604839 1.4664011444005753 -3.7766905817939787 0 0 0
2 1 2 -0.3662 0.7781422406853153 0.5419927034592251 -3.1214721229777904 0 0 0
4 1 1 0.1123 0.13413822969811554 1.189527568476964 -2.5566466081454404 0 0 0
8 2 6 0.2719 2.9618724835603594 -0.052561459677015976 -4.133357971957531 0 0 0
10 2 7 0.0823 3.7794166972141165 2.5138612089146726 -5.359136518735272 0 0 0
13 2 1 0.0603 5.704240422649218 1.0647426789731202 -3.5851367876434668 0 0 0
9 2 2 0.0337 4.105512393704907 1.6408041414919998 -4.860423400374284 0 0 0
6 1 4 -0.5679 1.5403536394745818 2.6304861073115604 -3.983418947960459 0 0 0
15 2 3 0.5973000000000001 4.777323646276499 0.7274806840555667 -5.9687831673985245 0 0 0
14 2 1 0.0603 5.848753562322566 2.7633462010634826 -4.124967928088095 0 0 0
16 2 4 -0.5679 4.772400394451767 -0.534029937127716 -5.892802705268334 0 0 0
21 3 7 0.09760000000000001 4.432250970060035 0.9680870487867757 -9.005281162771853 0 0 0
12 2 1 0.0603 4.672677209328333 2.3389239894217253 -2.9530144844913386 0 0 0
20 3 7 0.09760000000000001 5.609786570784419 -0.21168728353237296 -8.287822635591626 0 0 0
11 2 2 -0.1825 5.170018532201937 2.008794799209743 -3.8000425926961086 0 0 0
19 3 2 -0.149 5.328810887738439 0.7852935649361386 -8.431256153211015 0 0 0
18 3 6 0.2719 5.085941193063796 2.367120991510643 -7.1058526636050665 0 0 0
17 3 5 -0.4157 5.112610556949734 1.3315380811223225 -7.094451230526518 0 0 0
22 3 7 0.09760000000000001 6.136838652691932 1.2608943617758495 -8.876156263843852 0 0 0

Velocities

3 0.010261620365401486 -0.01882571195270511 0.007402434657123546
7 0.0001619029675715176 0.002427583082803869 0.005790571610888879
1 0.029352900666853195 0.0043869653006703944 0.006993180161771287
5 -0.0031450233870617605 -0.0036626467042298765 -0.0031482077773242077
2 0.001821642958542129 0.00796899926915243 0.0022777739528383086
4 0.0029924591886665436 -0.015140951887373884 0.02477532052327471
8 -0.00839669952872829 -0.00396942268360137 0.004600616596070221
10 -0.00494976682279127 0.030469883690797162 -0.011236752308189971
13 0.002148212765940617 0.022054835363137876 0.006901553254956511
9 -0.004720096098588418 -0.004051948773744001 0.008958051832238793
6 -0.003349346088870233 0.0010857154354640467 0.004934035924503078
15 -0.003877515487123515 -0.0001604466439321112 -0.0012480012481989038
14 0.02966287941371833 0.008412033614609115 0.0020402094445617
16 -0.0038177518834789062 -0.005293058311680885 -0.007406703416683311
21 0.043325253358097886 -0.029097642451392847 -0.02316765264597324
12 0.025922558234629793 0.02374732351134519 0.013638253139906648
20 0.01986386059372766 -0.00902370044554168 -0.0006539454786055499
11 -0.00023748907605064762 -0.004088977915370669 0.0011032635029367447
19 -0.0074013935202259075 -0.004605424255013705 -0.00368463025356627
18 0.015855799508270152 0.014393501490555027 -0.0034995273569776147
17 0.006031095236262798 0.002113976685217094 -0.0028021594099879883
22 -0.0039280295303825725 0.0012308791221631228 0.021595467758801733

Bonds

1 7 7 8
2 8 7 9
3 1 1 2
4 5 5 6
5 6 5 7
6 2 2 3
7 3 2 4
8 4 2 5
9 9 9 10
10 10 9 11
11 11 9 15
12 15 15 16
13 16 15 17
14 12 11 12
15 13 11 13
16 14 11 14
17 19 19 20
18 20 19 21
19 21 19 22
20 17 17 18
21 18 17 19

Angles

1 9 5 7 8
2 10 5 7 9
3 15 8 7 9
4 4 2 5 6
5 5 2 5 7
6 11 6 5 7
7 1 1 2 3
8 2 1 2 4
9 3 1 2 5
10 6 3 2 4
11 7 3 2 5
12 8 4 2 5
13 12 7 9 10
14 13 7 9 11
15 14 7 9 15
16 21 10 9 11
17 22 10 9 15
18 23 11 9 15
19 19 9 15 16
20 20 9 15 17
21 29 16 15 17
22 16 9 11 12
23 17 9 11 13
24 18 9 11 14
25 24 12 11 13
26 25 12 11 14
27 26 13 11 14
28 30 17 19 20
29 31 17 19 21
30 32 17 19 22
31 34 20 19 21
32 35 20 19 22
33 36 21 19 22
34 27 15 17 18
35 28 15 17 19
36 33 18 17 19

Dihedrals

1 6 2 7 5 6
2 13 5 7 9 10
3 14 5 7 9 11
4 15 5 7 9 11
5 16 5 7 9 11
6 17 5 7 9 15
7 18 5 7 9 15
8 30 8 7 9 10
9 31 8 7 9 11
10 32 8 7 9 15
11 4 2 5 7 8
12 5 2 5 7 9
13 20 6 5 7 8
14 21 6 5 7 8
15 22 6 5 7 9
16 1 1 2 5 6
17 2 1 2 5 6
18 3 1 2 5 7
19 7 3 2 5 6
20 8 3 2 5 6
21 9 3 2 5 7
22 10 4 2 5 6
23 11 4 2 5 6
24 12 4 2 5 7
25 19 5 9 7 8
26 23 7 9 11 12
27 24 7 9 11 13
28 25 7 9 11 14
29 26 7 9 15 16
30 27 7 9 15 17
31 28 7 9 15 17
32 29 7 9 15 17
33 36 10 9 11 12
34 37 10 9 11 13
35 38 10 9 11 14
36 39 10 9 15 16
37 40 10 9 15 16
38 41 10 9 15 17
39 42 11 9 15 16
40 43 11 9 15 17
41 44 11 9 15 17
42 45 11 9 15 17
43 46 15 9 11 12
44 47 15 9 11 13
45 48 15 9 11 14
46 33 9 15 17 18
47 34 9 15 17 19
48 53 16 15 17 18
49 54 16 15 17 18
50 55 16 15 17 19
51 52 15 19 17 18
52 35 9 17 15 16
53 49 15 17 19 20
54 50 15 17 19 21
55 51 15 17 19 22
56 56 18 17 19 20
57 57 18 17 19 21
58 58 18 17 19 22
