LAMMPS data file via write_data, version 23 Jun 2022, timestep = 1000000

22 atoms
7 atom types
21 bonds
21 bond types
36 angles
36 angle types
58 dihedrals
58 dihedral types

-25 25 xlo xhi
-25 25 ylo yhi
-25 25 zlo zhi

Masses

1 1.008
2 12.01
3 12.01
4 16
5 14.01
6 1.008
7 1.008

Atoms # full

3 1 1 0.1123 1.2338032578187303 -0.2935491751282943 -2.6175744868418636 0 0 0
7 2 5 -0.4157 2.972056039514118 0.8901195734097299 -4.167835530024922 0 0 0
1 1 1 0.1123 0.13089407751315088 0.3636325680353556 -3.8328391474558736 0 0 0
5 1 3 0.5972 1.8632425179913648 1.4794880810644613 -3.762647496617315 0 0 0
2 1 2 -0.3662 0.8168209536942036 0.629693325842439 -3.056333551314853 0 0 0
4 1 1 0.1123 0.27054570223884455 1.3048968654076403 -2.439748851790261 0 0 0
8 2 6 0.2719 3.0604417600045175 -0.13054716640254604 -4.11075516957868 0 0 0
10 2 7 0.0823 3.743589969087335 2.404420799288151 -5.342766369477268 0 0 0
13 2 1 0.0603 5.547380295579868 1.0537884879630461 -3.5339598372025183 0 0 0
9 2 2 0.0337 4.0730445538590185 1.4903990579283986 -4.835140312326527 0 0 0
6 1 4 -0.5679 1.655824055964595 2.6738194799148043 -4.02714879746147 0 0 0
15 2 3 0.5973000000000001 4.700548851392996 0.6728665445962235 -5.96351570867089 0 0 0
14 2 1 0.0603 5.930262211744958 2.5599754852882706 -4.188572709286891 0 0 0
16 2 4 -0.5679 4.66471733445783 -0.5117345649390596 -5.688517205441084 0 0 0
21 3 7 0.09760000000000001 4.512871300136745 -0.03459387473447037 -8.537593781879483 0 0 0
12 2 1 0.0603 4.645718205247701 2.5239393090136937 -3.044484002336564 0 0 0
20 3 7 0.09760000000000001 6.12814637750918 -0.19615604812805953 -8.066811533946737 0 0 0
11 2 2 -0.1825 5.080744422626386 1.9204824299798362 -3.7754444297994842 0 0 0
19 3 2 -0.149 5.368380196065003 0.5822879317566472 -8.330860390552258 0 0 0
18 3 6 0.2719 5.144653773723222 2.3614005268028633 -7.198561190476268 0 0 0
17 3 5 -0.4157 5.0828155674977635 1.2878997493496644 -7.155471452781507 0 0 0
22 3 7 0.09760000000000001 5.662880859798782 1.1568835335375134 -9.172504000164839 0 0 0

Velocities

3 -0.008795537856012541 -0.004011773811263275 0.008309818796270215
7 -0.004493884642686592 -0.0005099531410373094 -0.0015317711509949244
1 -0.0024681138042331264 -0.0005675066584461926 -0.007122738419567162
5 -0.0011906977755949094 0.0006432248859735686 -0.005681177095966111
2 -0.0013980756926293577 0.008788414047447275 -0.004810189418779171
4 -0.013926455296048934 -0.001004333576689919 0.015933564333818522
8 0.015306915104003657 0.0015902524768509727 -0.027719175675918067
10 0.030546766528535614 0.011455277524978637 0.01069857155047238
13 -0.0025631067536646263 0.014941860631462424 -0.024557249264701514
9 -0.005091298592362577 -0.007624004737461752 -0.003848869930496156
6 -0.007030045446287679 -0.003094797173631173 -0.0023980149889722266
15 -0.0023708183141826398 0.0002167368701939766 -0.0005084322437786406
14 0.004182811490227396 -0.029581754904084444 -0.0214425229396797
16 -0.009896573253465619 0.0014756057145459888 0.003076827347583235
21 0.004412849477210877 -0.0013168792401314564 0.007437924097029013
12 0.019803906446121004 0.005763515536974605 0.0021357308207581764
20 0.00018538807561924186 0.02813149770370407 0.013886684516895396
11 -0.00425983522018605 -0.0018928955915684066 0.00329381542921216
19 0.007053884036877594 -0.005738745421397131 -0.001217783057284193
18 -0.00010126597587994642 -0.006410496740605078 0.01333404108963115
17 0.00403419352532083 -0.005282559614699705 0.0013560775712502494
22 0.01721524144046806 -0.0043152442338664325 0.005427085287245554

Bonds

1 7 7 8
2 8 7 9
3 1 1 2
4 5 5 6
5 6 5 7
6 2 2 3
7 3 2 4
8 4 2 5
9 9 9 10
10 10 9 11
11 11 9 15
12 15 15 16
13 16 15 17
14 12 11 12
15 13 11 13
16 14 11 14
17 19 19 20
18 20 19 21
19 21 19 22
20 17 17 18
21 18 17 19

Angles

1 9 5 7 8
2 10 5 7 9
3 15 8 7 9
4 4 2 5 6
5 5 2 5 7
6 11 6 5 7
7 1 1 2 3
8 2 1 2 4
9 3 1 2 5
10 6 3 2 4
11 7 3 2 5
12 8 4 2 5
13 12 7 9 10
14 13 7 9 11
15 14 7 9 15
16 21 10 9 11
17 22 10 9 15
18 23 11 9 15
19 19 9 15 16
20 20 9 15 17
21 29 16 15 17
22 16 9 11 12
23 17 9 11 13
24 18 9 11 14
25 24 12 11 13
26 25 12 11 14
27 26 13 11 14
28 30 17 19 20
29 31 17 19 21
30 32 17 19 22
31 34 20 19 21
32 35 20 19 22
33 36 21 19 22
34 27 15 17 18
35 28 15 17 19
36 33 18 17 19

Dihedrals

1 6 2 7 5 6
2 13 5 7 9 10
3 14 5 7 9 11
4 15 5 7 9 11
5 16 5 7 9 11
6 17 5 7 9 15
7 18 5 7 9 15
8 30 8 7 9 10
9 31 8 7 9 11
10 32 8 7 9 15
11 4 2 5 7 8
12 5 2 5 7 9
13 20 6 5 7 8
14 21 6 5 7 8
15 22 6 5 7 9
16 1 1 2 5 6
17 2 1 2 5 6
18 3 1 2 5 7
19 7 3 2 5 6
20 8 3 2 5 6
21 9 3 2 5 7
22 10 4 2 5 6
23 11 4 2 5 6
24 12 4 2 5 7
25 19 5 9 7 8
26 23 7 9 11 12
27 24 7 9 11 13
28 25 7 9 11 14
29 26 7 9 15 16
30 27 7 9 15 17
31 28 7 9 15 17
32 29 7 9 15 17
33 36 10 9 11 12
34 37 10 9 11 13
35 38 10 9 11 14
36 39 10 9 15 16
37 40 10 9 15 16
38 41 10 9 15 17
39 42 11 9 15 16
40 43 11 9 15 17
41 44 11 9 15 17
42 45 11 9 15 17
43 46 15 9 11 12
44 47 15 9 11 13
45 48 15 9 11 14
46 33 9 15 17 18
47 34 9 15 17 19
48 53 16 15 17 18
49 54 16 15 17 18
50 55 16 15 17 19
51 52 15 19 17 18
52 35 9 17 15 16
53 49 15 17 19 20
54 50 15 17 19 21
55 51 15 17 19 22
56 56 18 17 19 20
57 57 18 17 19 21
58 58 18 17 19 22
