LAMMPS data file via write_data, version 23 Jun 2022, timestep = 1000000

22 atoms
7 atom types
21 bonds
21 bond types
36 angles
36 angle types
58 dihedrals
58 dihedral types

-25 25 xlo xhi
-25 25 ylo yhi
-25 25 zlo zhi

Masses

1 1.008
2 12.01
3 12.01
4 16
5 14.01
6 1.008
7 1.008

Atoms # full

3 1 1 0.1123 1.2047742918481668 -0.2984621593281116 -2.6623237462855798 0 0 0
7 2 5 -0.4157 2.9206718661657995 0.9293934882297753 -4.125875899566867 0 0 0
1 1 1 0.1123 0.13224230325636627 0.25581403883122683 -3.908466414399489 0 0 0
5 1 3 0.5972 1.8069309698112952 1.485232902312123 -3.717518933230867 0 0 0
2 1 2 -0.3662 0.753486596060299 0.5762631998890355 -3.1024091849335242 0 0 0
4 1 1 0.1123 0.11140981474349314 1.0471206960491868 -2.286350856899976 0 0 0
8 2 6 0.2719 3.0587059653941653 -0.03482810689741737 -3.805154871703305 0 0 0
10 2 7 0.0823 3.585966360294859 2.51875162393585 -5.360288242743718 0 0 0
13 2 1 0.0603 5.710702101813825 0.9722287728380438 -3.585727657506797 0 0 0
9 2 2 0.0337 4.019438898664867 1.5493190977661737 -4.848108631023744 0 0 0
6 1 4 -0.5679 1.552360516410518 2.664729949547931 -4.055164927841261 0 0 0
15 2 3 0.5973000000000001 4.6278666594545985 0.6780203865225817 -5.991985381845179 0 0 0
14 2 1 0.0603 5.707483608364569 2.779000226092446 -4.1431478062141265 0 0 0
16 2 4 -0.5679 4.6716596419612415 -0.49745470328084684 -5.75144260090538 0 0 0
21 3 7 0.09760000000000001 4.481472104341297 -0.15630602518825348 -8.54496964253665 0 0 0
12 2 1 0.0603 4.589690321267964 2.3193532454917083 -2.880289078437893 0 0 0
20 3 7 0.09760000000000001 6.017256246096626 -0.18084767090945184 -7.9981450407944354 0 0 0
11 2 2 -0.1825 5.081724279357107 1.948072070131297 -3.8044870271414024 0 0 0
19 3 2 -0.149 5.368679196896507 0.47014121634192657 -8.339233924181004 0 0 0
18 3 6 0.2719 5.033182712949654 2.161600891195767 -7.215680948818597 0 0 0
17 3 5 -0.4157 5.008809154391199 1.254840662068951 -7.145681762108167 0 0 0
22 3 7 0.09760000000000001 5.677465184927928 1.015840490315028 -9.179265506242206 0 0 0

Velocities

3 -0.01059550133852723 0.01581671369699331 -0.0049564507518478065
7 -0.0029873636689692114 -0.011109177782131168 -0.006907786052353222
1 -0.010052619371192246 -0.009051833879956613 0.014335737432510855
5 -0.0036336274555134524 0.00030708055824426954 0.006171761761519585
2 0.0069202266723793525 -0.0010952847483363538 0.0008243335746758574
4 0.0029740917654033816 -0.00956651876497196 -0.004277786150840934
8 -0.006663808264738473 -0.023115493171655434 -0.007871286647062223
10 0.01998225311302595 0.011677538779229817 0.026022875552530366
13 -0.00390786967927493 0.009004584063299233 0.0022968041992083178
9 -0.005815025574878166 -0.003952255491760865 -7.901410775031255e-05
6 -0.0016416398390441702 -0.0036243893871946487 -0.001746216405173601
15 0.003596495748700323 -0.009102025556981159 0.000554704216763963
14 0.002458342334807243 -0.016628192884194284 -0.02319988784172051
16 0.00022746983694341724 0.0023145221244438912 -0.006041744268137288
21 -0.0009383582898473752 -0.03452755566041303 -0.018817849278611465
12 0.0004514638453223727 0.0019025054207219107 0.007623094096378589
20 0.02094633231998252 -0.010882005075513764 0.02747686848426705
11 -0.006248420798928659 0.0032105373313935878 -0.001501793283178713
19 0.0009549352953527176 0.0068115565232909564 0.000671772168916915
18 -0.0018011135288835281 0.0075936215120424215 -0.008366034905656912
17 0.0001930906400779856 -0.003803602669284052 -0.006542476940616914
22 0.041287597488526784 -0.016699534363713974 -0.0006101182661975406

Bonds

1 7 7 8
2 8 7 9
3 1 1 2
4 5 5 6
5 6 5 7
6 2 2 3
7 3 2 4
8 4 2 5
9 9 9 10
10 10 9 11
11 11 9 15
12 15 15 16
13 16 15 17
14 12 11 12
15 13 11 13
16 14 11 14
17 19 19 20
18 20 19 21
19 21 19 22
20 17 17 18
21 18 17 19

Angles

1 9 5 7 8
2 10 5 7 9
3 15 8 7 9
4 4 2 5 6
5 5 2 5 7
6 11 6 5 7
7 1 1 2 3
8 2 1 2 4
9 3 1 2 5
10 6 3 2 4
11 7 3 2 5
12 8 4 2 5
13 12 7 9 10
14 13 7 9 11
15 14 7 9 15
16 21 10 9 11
17 22 10 9 15
18 23 11 9 15
19 19 9 15 16
20 20 9 15 17
21 29 16 15 17
22 16 9 11 12
23 17 9 11 13
24 18 9 11 14
25 24 12 11 13
26 25 12 11 14
27 26 13 11 14
28 30 17 19 20
29 31 17 19 21
30 32 17 19 22
31 34 20 19 21
32 35 20 19 22
33 36 21 19 22
34 27 15 17 18
35 28 15 17 19
36 33 18 17 19

Dihedrals

1 6 2 7 5 6
2 13 5 7 9 10
3 14 5 7 9 11
4 15 5 7 9 11
5 16 5 7 9 11
6 17 5 7 9 15
7 18 5 7 9 15
8 30 8 7 9 10
9 31 8 7 9 11
10 32 8 7 9 15
11 4 2 5 7 8
12 5 2 5 7 9
13 20 6 5 7 8
14 21 6 5 7 8
15 22 6 5 7 9
16 1 1 2 5 6
17 2 1 2 5 6
18 3 1 2 5 7
19 7 3 2 5 6
20 8 3 2 5 6
21 9 3 2 5 7
22 10 4 2 5 6
23 11 4 2 5 6
24 12 4 2 5 7
25 19 5 9 7 8
26 23 7 9 11 12
27 24 7 9 11 13
28 25 7 9 11 14
29 26 7 9 15 16
30 27 7 9 15 17
31 28 7 9 15 17
32 29 7 9 15 17
33 36 10 9 11 12
34 37 10 9 11 13
35 38 10 9 11 14
36 39 10 9 15 16
37 40 10 9 15 16
38 41 10 9 15 17
39 42 11 9 15 16
40 43 11 9 15 17
41 44 11 9 15 17
42 45 11 9 15 17
43 46 15 9 11 12
44 47 15 9 11 13
45 48 15 9 11 14
46 33 9 15 17 18
47 34 9 15 17 19
48 53 16 15 17 18
49 54 16 15 17 18
50 55 16 15 17 19
51 52 15 19 17 18
52 35 9 17 15 16
53 49 15 17 19 20
54 50 15 17 19 21
55 51 15 17 19 22
56 56 18 17 19 20
57 57 18 17 19 21
58 58 18 17 19 22
