LAMMPS data file via write_data, version 23 Jun 2022, timestep = 1000000

22 atoms
7 atom types
21 bonds
21 bond types
36 angles
36 angle types
58 dihedrals
58 dihedral types

-25 25 xlo xhi
-25 25 ylo yhi
-25 25 zlo zhi

Masses

1 1.008
2 12.01
3 12.01
4 16
5 14.01
6 1.008
7 1.008

Atoms # full

3 1 1 0.1123 1.1216962292222856 -0.1488524401292515 -2.447103845248737 0 0 0
7 2 5 -0.4157 2.9772853696677757 0.923193824270972 -4.207217578134296 0 0 0
1 1 1 0.1123 0.29794263478926186 0.18648113748288395 -3.9835796282999487 0 0 0
5 1 3 0.5972 1.8417066451220598 1.4438153274628012 -3.757742160215283 0 0 0
2 1 2 -0.3662 0.7687162735932676 0.5563029788223317 -3.125890782607212 0 0 0
4 1 1 0.1123 0.1938185752215424 1.1589504187920294 -2.5130005748874837 0 0 0
8 2 6 0.2719 3.0408302439079566 -0.01890600400992242 -4.142372126680472 0 0 0
10 2 7 0.0823 3.730236535119249 2.5699884806659545 -5.298349933247693 0 0 0
13 2 1 0.0603 5.774754837142645 1.0946621452569265 -3.617747981138926 0 0 0
9 2 2 0.0337 4.074207148811511 1.6373566695683346 -4.881624799038388 0 0 0
6 1 4 -0.5679 1.5540814808964398 2.645622808853555 -3.9599240062807333 0 0 0
15 2 3 0.5973000000000001 4.724121028268768 0.702469357398794 -5.971509961855533 0 0 0
14 2 1 0.0603 5.807561051372914 2.8016335752967665 -3.9922824544176776 0 0 0
16 2 4 -0.5679 4.777741095548564 -0.545537189946375 -5.896078351511222 0 0 0
21 3 7 0.09760000000000001 4.453868454123976 0.8539636311858473 -9.04767960241355 0 0 0
12 2 1 0.0603 4.675626818329021 2.250402715999641 -2.8694981001551927 0 0 0
20 3 7 0.09760000000000001 5.557582551484334 -0.2825059875252547 -8.21813837999066 0 0 0
11 2 2 -0.1825 5.164206458463805 1.9479023946948526 -3.7812927546916213 0 0 0
19 3 2 -0.149 5.3169153995609015 0.7802642471772997 -8.39857733629011 0 0 0
18 3 6 0.2719 5.0941818572113515 2.3433181324802503 -7.023022457748211 0 0 0
17 3 5 -0.4157 5.130193349805225 1.334620717088245 -7.081002919009718 0 0 0
22 3 7 0.09760000000000001 6.182166690286698 1.283884295729584 -8.86317558300843 0 0 0

Velocities

3 0.022073883730002755 0.018324755582481072 0.025964107508335353
7 -0.004476925764505792 0.004321312137060749 -0.004059406671898483
1 0.011390285436611238 -0.021287751261546955 -0.014679425850617458
5 0.002390899334783007 -0.007470356988398812 -0.0015420676432363765
2 -0.010958784917842617 0.00547751623822118 0.01009268641029171
4 0.020285474697188114 -0.0011386561418946194 -0.031497676021114855
8 -0.01698963449910091 -0.041312209537662826 0.03264373360087184
10 -0.009230769373708266 0.0026766870812928254 0.005385024780196307
13 0.01084452842360414 -0.010657222250690901 -0.0036653278519270557
9 0.0027580399679064944 0.0037819687908862945 0.0029977956322119544
6 -7.363948127125271e-05 0.0025014603846516313 0.002241917068228773
15 0.0038844946394305914 0.0030658205555418438 -0.001278914417731248
14 0.016827548164261203 0.004630991551839934 -0.012996016771041527
16 -0.0024515636580300457 -0.0027693206146434573 -0.009718534629976745
21 -0.005746854395624818 0.010728112321540112 0.014545341557739237
12 -0.005535910010158635 -0.004020502667139041 -0.0022009397091701938
20 0.01938461812774005 0.002753707179381144 0.011389818479270793
11 0.01226400706298944 -0.0028391552308168386 0.00440778123610808
19 0.0025860453235087844 0.0016360361168800547 0.01070140022809232
18 -0.011837795309925122 -0.004102313254079678 -0.007642124075213476
17 0.0017219605642030916 0.0017677654192895234 0.008074964448610462
22 0.017182707632848394 -0.027480551706538285 0.03028253354504437

Bonds

1 7 7 8
2 8 7 9
3 1 1 2
4 5 5 6
5 6 5 7
6 2 2 3
7 3 2 4
8 4 2 5
9 9 9 10
10 10 9 11
11 11 9 15
12 15 15 16
13 16 15 17
14 12 11 12
15 13 11 13
16 14 11 14
17 19 19 20
18 20 19 21
19 21 19 22
20 17 17 18
21 18 17 19

Angles

1 9 5 7 8
2 10 5 7 9
3 15 8 7 9
4 4 2 5 6
5 5 2 5 7
6 11 6 5 7
7 1 1 2 3
8 2 1 2 4
9 3 1 2 5
10 6 3 2 4
11 7 3 2 5
12 8 4 2 5
13 12 7 9 10
14 13 7 9 11
15 14 7 9 15
16 21 10 9 11
17 22 10 9 15
18 23 11 9 15
19 19 9 15 16
20 20 9 15 17
21 29 16 15 17
22 16 9 11 12
23 17 9 11 13
24 18 9 11 14
25 24 12 11 13
26 25 12 11 14
27 26 13 11 14
28 30 17 19 20
29 31 17 19 21
30 32 17 19 22
31 34 20 19 21
32 35 20 19 22
33 36 21 19 22
34 27 15 17 18
35 28 15 17 19
36 33 18 17 19

Dihedrals

1 6 2 7 5 6
2 13 5 7 9 10
3 14 5 7 9 11
4 15 5 7 9 11
5 16 5 7 9 11
6 17 5 7 9 15
7 18 5 7 9 15
8 30 8 7 9 10
9 31 8 7 9 11
10 32 8 7 9 15
11 4 2 5 7 8
12 5 2 5 7 9
13 20 6 5 7 8
14 21 6 5 7 8
15 22 6 5 7 9
16 1 1 2 5 6
17 2 1 2 5 6
18 3 1 2 5 7
19 7 3 2 5 6
20 8 3 2 5 6
21 9 3 2 5 7
22 10 4 2 5 6
23 11 4 2 5 6
24 12 4 2 5 7
25 19 5 9 7 8
26 23 7 9 11 12
27 24 7 9 11 13
28 25 7 9 11 14
29 26 7 9 15 16
30 27 7 9 15 17
31 28 7 9 15 17
32 29 7 9 15 17
33 36 10 9 11 12
34 37 10 9 11 13
35 38 10 9 11 14
36 39 10 9 15 16
37 40 10 9 15 16
38 41 10 9 15 17
39 42 11 9 15 16
40 43 11 9 15 17
41 44 11 9 15 17
42 45 11 9 15 17
43 46 15 9 11 12
44 47 15 9 11 13
45 48 15 9 11 14
46 33 9 15 17 18
47 34 9 15 17 19
48 53 16 15 17 18
49 54 16 15 17 18
50 55 16 15 17 19
51 52 15 19 17 18
52 35 9 17 15 16
53 49 15 17 19 20
54 50 15 17 19 21
55 51 15 17 19 22
56 56 18 17 19 20
57 57 18 17 19 21
58 58 18 17 19 22
