LAMMPS data file via write_data, version 23 Jun 2022, timestep = 1000000

22 atoms
7 atom types
21 bonds
21 bond types
36 angles
36 angle types
58 dihedrals
58 dihedral types

-25 25 xlo xhi
-25 25 ylo yhi
-25 25 zlo zhi

Masses

1 1.008
2 12.01
3 12.01
4 16
5 14.01
6 1.008
7 1.008

Atoms # full

3 1 1 0.1123 1.2435755036500475 -0.22188052589712676 -2.565686002163932 0 0 0
7 2 5 -0.4157 2.9382721738188784 0.8754310925248375 -4.151665728340119 0 0 0
1 1 1 0.1123 0.11782701446049194 0.3803384855126584 -3.8571392514507865 0 0 0
5 1 3 0.5972 1.8550071125779966 1.4539786180136849 -3.7798333123413057 0 0 0
2 1 2 -0.3662 0.8117833662056344 0.6399170876548814 -3.0736864002930138 0 0 0
4 1 1 0.1123 0.0647604797958931 1.272564606005533 -2.392146877439467 0 0 0
8 2 6 0.2719 3.1225820204045767 -0.09531156954134383 -4.003271932851045 0 0 0
10 2 7 0.0823 3.656675548703034 2.492825321955135 -5.279091783798161 0 0 0
13 2 1 0.0603 5.560437556626068 0.894652677858289 -3.5797007711864794 0 0 0
9 2 2 0.0337 4.045499344323838 1.5342804507189556 -4.870771006793931 0 0 0
6 1 4 -0.5679 1.6591483859562088 2.6888730539607706 -4.036749621003737 0 0 0
15 2 3 0.5973000000000001 4.666882582866252 0.7029050265264792 -5.986535133375781 0 0 0
14 2 1 0.0603 5.762976716573854 2.620273476604671 -4.130957903131234 0 0 0
16 2 4 -0.5679 4.673003749046866 -0.5033472812193072 -5.705358800490632 0 0 0
21 3 7 0.09760000000000001 4.558668840469574 -0.11735008367349874 -8.528342903717906 0 0 0
12 2 1 0.0603 4.725958942091177 2.518121633420875 -3.011056594489624 0 0 0
20 3 7 0.09760000000000001 6.18409784665224 -0.049998488682429516 -8.03918399006856 0 0 0
11 2 2 -0.1825 5.09854699367392 1.9380401781862184 -3.788656062593063 0 0 0
19 3 2 -0.149 5.343016190300346 0.5533460352198978 -8.355224638586664 0 0 0
18 3 6 0.2719 5.0329946717142455 2.3853854770179876 -7.14340479876795 0 0 0
17 3 5 -0.4157 5.062995059797452 1.312574586841089 -7.122590194249151 0 0 0
22 3 7 0.09760000000000001 5.6397284175679685 1.1862711174548206 -9.13849642462815 0 0 0

Velocities

3 -0.020244695964903126 0.013470520899009849 0.004685370768289014
7 -0.0030986019068713257 0.0005727897494542936 -0.00452350446282848
1 -0.019894413838116454 -0.012874242196321216 0.023883704842427706
5 -0.002886564793030349 -0.003646008253010535 0.0067119721368889725
2 -0.008126442155306304 -0.0030893827054860185 -0.0006966652935820629
4 -0.023852574324531993 0.00898333797605083 -0.005015404755810279
8 -0.010083825201933435 0.023877293122708424 -0.032705212504470796
10 -0.02314479516268044 -0.007986462587541375 -0.0052580351177805955
13 0.015401174817413599 -0.002213130614095376 0.027517220201605578
9 -0.00030691107459493064 -0.0033295534958776704 -0.0008878684136138138
6 0.0022065381049137323 -0.0015391455784455204 0.00529201512296647
15 -0.0012307602192185138 -0.004557999597120472 -0.008346321403838905
14 0.014033876779570902 0.0573682537360178 0.03396007397959251
16 0.0008754626856658923 0.002790570911350208 -3.998971421711908e-05
21 -0.0009608278401898717 -0.0005784936671299821 0.0035211101846702813
12 0.01347655970106553 0.004577472353078325 -0.041759347240148105
20 0.005562292373908934 0.0014297465259938882 0.010731620634630467
11 0.008831750375663253 -0.0027048567832833595 -0.0004899801306596179
19 -0.003257582673977848 0.0014302461647786719 -0.001546333232305919
18 -0.01663739661395652 0.0034519477923076356 0.012732031334903462
17 -0.007239484142483029 -0.000741543793283969 -0.0013802990486082684
22 -0.007259699924424384 0.022026857332298432 -0.001401492123388634

Bonds

1 7 7 8
2 8 7 9
3 1 1 2
4 5 5 6
5 6 5 7
6 2 2 3
7 3 2 4
8 4 2 5
9 9 9 10
10 10 9 11
11 11 9 15
12 15 15 16
13 16 15 17
14 12 11 12
15 13 11 13
16 14 11 14
17 19 19 20
18 20 19 21
19 21 19 22
20 17 17 18
21 18 17 19

Angles

1 9 5 7 8
2 10 5 7 9
3 15 8 7 9
4 4 2 5 6
5 5 2 5 7
6 11 6 5 7
7 1 1 2 3
8 2 1 2 4
9 3 1 2 5
10 6 3 2 4
11 7 3 2 5
12 8 4 2 5
13 12 7 9 10
14 13 7 9 11
15 14 7 9 15
16 21 10 9 11
17 22 10 9 15
18 23 11 9 15
19 19 9 15 16
20 20 9 15 17
21 29 16 15 17
22 16 9 11 12
23 17 9 11 13
24 18 9 11 14
25 24 12 11 13
26 25 12 11 14
27 26 13 11 14
28 30 17 19 20
29 31 17 19 21
30 32 17 19 22
31 34 20 19 21
32 35 20 19 22
33 36 21 19 22
34 27 15 17 18
35 28 15 17 19
36 33 18 17 19

Dihedrals

1 6 2 7 5 6
2 13 5 7 9 10
3 14 5 7 9 11
4 15 5 7 9 11
5 16 5 7 9 11
6 17 5 7 9 15
7 18 5 7 9 15
8 30 8 7 9 10
9 31 8 7 9 11
10 32 8 7 9 15
11 4 2 5 7 8
12 5 2 5 7 9
13 20 6 5 7 8
14 21 6 5 7 8
15 22 6 5 7 9
16 1 1 2 5 6
17 2 1 2 5 6
18 3 1 2 5 7
19 7 3 2 5 6
20 8 3 2 5 6
21 9 3 2 5 7
22 10 4 2 5 6
23 11 4 2 5 6
24 12 4 2 5 7
25 19 5 9 7 8
26 23 7 9 11 12
27 24 7 9 11 13
28 25 7 9 11 14
29 26 7 9 15 16
30 27 7 9 15 17
31 28 7 9 15 17
32 29 7 9 15 17
33 36 10 9 11 12
34 37 10 9 11 13
35 38 10 9 11 14
36 39 10 9 15 16
37 40 10 9 15 16
38 41 10 9 15 17
39 42 11 9 15 16
40 43 11 9 15 17
41 44 11 9 15 17
42 45 11 9 15 17
43 46 15 9 11 12
44 47 15 9 11 13
45 48 15 9 11 14
46 33 9 15 17 18
47 34 9 15 17 19
48 53 16 15 17 18
49 54 16 15 17 18
50 55 16 15 17 19
51 52 15 19 17 18
52 35 9 17 15 16
53 49 15 17 19 20
54 50 15 17 19 21
55 51 15 17 19 22
56 56 18 17 19 20
57 57 18 17 19 21
58 58 18 17 19 22
