LAMMPS data file via write_data, version 23 Jun 2022, timestep = 1000000

22 atoms
7 atom types
21 bonds
21 bond types
36 angles
36 angle types
58 dihedrals
58 dihedral types

-25 25 xlo xhi
-25 25 ylo yhi
-25 25 zlo zhi

Masses

1 1.008
2 12.01
3 12.01
4 16
5 14.01
6 1.008
7 1.008

Atoms # full

3 1 1 0.1123 1.2820284244351599 -0.30755729979025476 -2.81785847760416 0 0 0
7 2 5 -0.4157 2.9827974576020284 0.839909413032435 -4.1907900161798635 0 0 0
1 1 1 0.1123 -0.025526008307747275 0.33297306173099733 -3.899473272748479 0 0 0
5 1 3 0.5972 1.8547495885072776 1.4357694022285747 -3.7380502446431962 0 0 0
2 1 2 -0.3662 0.7369143265513942 0.5854614010541533 -3.141823898593511 0 0 0
4 1 1 0.1123 0.2177977110028351 0.9507094597383562 -2.3497831151069914 0 0 0
8 2 6 0.2719 3.09510090581889 -0.18996787354606065 -4.112257993476525 0 0 0
10 2 7 0.0823 3.710492662778099 2.3884930089616527 -5.312811425058253 0 0 0
13 2 1 0.0603 5.565033482864004 1.0577790867288446 -3.4012464868277035 0 0 0
9 2 2 0.0337 4.038476703305947 1.5587237244723857 -4.91229426702879 0 0 0
6 1 4 -0.5679 1.5888654487345713 2.63585262775729 -4.042419150596163 0 0 0
15 2 3 0.5973000000000001 4.644640648461746 0.6268108906879222 -5.9491602054999095 0 0 0
14 2 1 0.0603 5.872325887603782 2.5762909813706103 -4.301045983316918 0 0 0
16 2 4 -0.5679 4.654583560763886 -0.5978974807964917 -5.781782335009303 0 0 0
21 3 7 0.09760000000000001 4.599257941108246 -0.08954120624768316 -8.750311166595008 0 0 0
12 2 1 0.0603 4.589342026271389 2.620523063293977 -2.9703553722934237 0 0 0
20 3 7 0.09760000000000001 6.161229241964743 -0.190418605815851 -8.18755000833912 0 0 0
11 2 2 -0.1825 5.07409982678127 1.9446213943426927 -3.8557869565991645 0 0 0
19 3 2 -0.149 5.370044478840636 0.4528311907290691 -8.353884075764851 0 0 0
18 3 6 0.2719 4.831303453675314 2.158743811123349 -7.252136807608408 0 0 0
17 3 5 -0.4157 5.015678426927633 1.2198290736305053 -7.115791473376383 0 0 0
22 3 7 0.09760000000000001 5.738868711671525 1.2492131814364036 -9.147203516342843 0 0 0

Velocities

3 0.011135770439530283 0.004821614497157955 -0.019157230586178516
7 -0.0036094937452043545 -0.0020051797714181804 -0.00014050637981640357
1 0.019580346266457608 0.01611660390972168 0.005147398343367401
5 0.0011237131965670512 0.0016081762020037328 -0.0022099969755318503
2 0.0018314208878823161 0.00030791969535116134 -0.002942941374097528
4 0.007023974837051836 0.008255128689176206 -0.0019344842349980295
8 0.01686472229266099 -0.01812432544380627 -0.023189277920459543
10 0.03062774036076671 0.04556892608333477 -0.007644522532900375
13 -0.030177405468996492 0.0025270587914628714 0.0118329258117466
9 0.002507098355976679 0.002008792067816314 -0.0012218035429123033
6 -0.006435395330711807 -0.004637837812355862 0.002778162749654332
15 0.00014800346423071036 -0.0022590472232186408 0.0030702401564645277
14 -0.019499071540069215 0.011755153093590036 0.01480512806900236
16 0.003456416600614501 0.00031382983666667556 -0.004976421704285602
21 -0.005257423238334814 -0.006394556698631226 0.00041044520707040813
12 0.003508997559260786 -0.030709972266908678 0.006255524324064709
20 0.013937010878396923 0.016164462333702622 0.002008536447365663
11 -0.0009302938722139638 0.003758910917013005 0.0016423418789499348
19 0.01161997805337189 0.009738107012569785 -0.000566949572764751
18 -0.006717655760725538 -0.0064458136284986055 -0.04440138891443762
17 -1.974783869767454e-06 -0.007363444841392926 0.004628385546190087
22 -0.005099556861993436 -0.01974071710139528 0.009822585305243372

Bonds

1 7 7 8
2 8 7 9
3 1 1 2
4 5 5 6
5 6 5 7
6 2 2 3
7 3 2 4
8 4 2 5
9 9 9 10
10 10 9 11
11 11 9 15
12 15 15 16
13 16 15 17
14 12 11 12
15 13 11 13
16 14 11 14
17 19 19 20
18 20 19 21
19 21 19 22
20 17 17 18
21 18 17 19

Angles

1 9 5 7 8
2 10 5 7 9
3 15 8 7 9
4 4 2 5 6
5 5 2 5 7
6 11 6 5 7
7 1 1 2 3
8 2 1 2 4
9 3 1 2 5
10 6 3 2 4
11 7 3 2 5
12 8 4 2 5
13 12 7 9 10
14 13 7 9 11
15 14 7 9 15
16 21 10 9 11
17 22 10 9 15
18 23 11 9 15
19 19 9 15 16
20 20 9 15 17
21 29 16 15 17
22 16 9 11 12
23 17 9 11 13
24 18 9 11 14
25 24 12 11 13
26 25 12 11 14
27 26 13 11 14
28 30 17 19 20
29 31 17 19 21
30 32 17 19 22
31 34 20 19 21
32 35 20 19 22
33 36 21 19 22
34 27 15 17 18
35 28 15 17 19
36 33 18 17 19

Dihedrals

1 6 2 7 5 6
2 13 5 7 9 10
3 14 5 7 9 11
4 15 5 7 9 11
5 16 5 7 9 11
6 17 5 7 9 15
7 18 5 7 9 15
8 30 8 7 9 10
9 31 8 7 9 11
10 32 8 7 9 15
11 4 2 5 7 8
12 5 2 5 7 9
13 20 6 5 7 8
14 21 6 5 7 8
15 22 6 5 7 9
16 1 1 2 5 6
17 2 1 2 5 6
18 3 1 2 5 7
19 7 3 2 5 6
20 8 3 2 5 6
21 9 3 2 5 7
22 10 4 2 5 6
23 11 4 2 5 6
24 12 4 2 5 7
25 19 5 9 7 8
26 23 7 9 11 12
27 24 7 9 11 13
28 25 7 9 11 14
29 26 7 9 15 16
30 27 7 9 15 17
31 28 7 9 15 17
32 29 7 9 15 17
33 36 10 9 11 12
34 37 10 9 11 13
35 38 10 9 11 14
36 39 10 9 15 16
37 40 10 9 15 16
38 41 10 9 15 17
39 42 11 9 15 16
40 43 11 9 15 17
41 44 11 9 15 17
42 45 11 9 15 17
43 46 15 9 11 12
44 47 15 9 11 13
45 48 15 9 11 14
46 33 9 15 17 18
47 34 9 15 17 19
48 53 16 15 17 18
49 54 16 15 17 18
50 55 16 15 17 19
51 52 15 19 17 18
52 35 9 17 15 16
53 49 15 17 19 20
54 50 15 17 19 21
55 51 15 17 19 22
56 56 18 17 19 20
57 57 18 17 19 21
58 58 18 17 19 22
