LAMMPS data file via write_data, version 23 Jun 2022, timestep = 1000000

22 atoms
7 atom types
21 bonds
21 bond types
36 angles
36 angle types
58 dihedrals
58 dihedral types

-25 25 xlo xhi
-25 25 ylo yhi
-25 25 zlo zhi

Masses

1 1.008
2 12.01
3 12.01
4 16
5 14.01
6 1.008
7 1.008

Atoms # full

3 1 1 0.1123 1.4481326104220809 0.012609062303709707 -2.332583867765825 0 0 0
7 2 5 -0.4157 2.961999226518824 0.8390410574190843 -4.227042712024493 0 0 0
1 1 1 0.1123 0.27635854470136884 0.16537756742282228 -3.7258922452906567 0 0 0
5 1 3 0.5972 1.8886854012727936 1.434590012969393 -3.7515098403889873 0 0 0
2 1 2 -0.3662 0.9006878546176853 0.661555866936718 -3.020483049007212 0 0 0
4 1 1 0.1123 0.30921373528211665 1.3580579653457603 -2.3709311665364097 0 0 0
8 2 6 0.2719 3.1097166639552998 -0.1742160132979739 -4.140893260426545 0 0 0
10 2 7 0.0823 3.7989375089673514 2.5659607402486686 -5.249132006081942 0 0 0
13 2 1 0.0603 5.560697619694862 0.9966973016207 -3.514703704115209 0 0 0
9 2 2 0.0337 4.056872299220385 1.5733866864886712 -4.8690126541491345 0 0 0
6 1 4 -0.5679 1.6577780403733502 2.6184362312780713 -3.9835127551970637 0 0 0
15 2 3 0.5973000000000001 4.581277721227487 0.7097962945049894 -5.988003348231557 0 0 0
14 2 1 0.0603 5.736409094752831 2.6294577792732627 -4.135444582119425 0 0 0
16 2 4 -0.5679 4.6958542899500335 -0.5107102541291113 -5.8099806149132425 0 0 0
21 3 7 0.09760000000000001 4.448757039332353 0.3646732062721392 -8.95311303443659 0 0 0
12 2 1 0.0603 4.50678754999042 2.30634571990637 -2.88772667197647 0 0 0
20 3 7 0.09760000000000001 5.86763761382646 -0.28365497169543763 -8.038731275795952 0 0 0
11 2 2 -0.1825 5.044766780125231 1.8721845891207538 -3.791315021100338 0 0 0
19 3 2 -0.149 5.400163477973294 0.6196535465712528 -8.368473888162837 0 0 0
18 3 6 0.2719 5.116720991034668 2.248932836393056 -6.997581230491372 0 0 0
17 3 5 -0.4157 5.067543588960175 1.349210089119301 -7.060481890634621 0 0 0
22 3 7 0.09760000000000001 5.852291577153136 1.3447436018172476 -9.092992571680364 0 0 0

Velocities

3 0.015309790929228488 -0.005682633454331555 0.011194026645590384
7 -0.0046421540015171014 -0.00023282412173723115 -0.0036404828770411736
1 -0.0071905151550076775 0.01742356007008988 -0.001571388280721051
5 0.0009235476507328225 0.0003272860204174989 -0.0014185527804952542
2 -0.0008049787816326819 -0.0016809347310231047 0.000554506322141507
4 0.00792026994032023 0.001292296868153828 -0.0010497419871241538
8 0.006565310591545663 0.0014919787738102205 0.0015210810721243773
10 0.004646678188834167 0.001999883306083252 -0.0011422033862720717
13 -0.013571948910659938 0.0018089595066924373 -0.026776386165755395
9 -0.00627901151072919 0.0010082845797611177 0.002840835862790875
6 0.004418567447274939 0.0034100463246451674 0.0005966307452872871
15 0.007084061061506722 0.0005872503534889851 -0.008820368247537505
14 -0.014946251863900029 0.003859270601301962 0.0019338187908595457
16 0.0010649906668220128 -0.0001852168135276854 0.0010369164731152208
21 0.0003766180299201909 0.011694280895094666 0.01930575983061287
12 -0.0017597907090671615 0.007918834336698388 8.328245024168644e-05
20 0.001351005911356216 -0.014493212996321706 -0.03924439731316715
11 0.007651888192850135 -0.00012593341693390575 -0.004944722037834743
19 0.00515666731050635 -0.0066661682792610475 0.0013551316007531307
18 -0.020648324590154865 -0.025853298118849392 -0.011024559721600598
17 -0.008931386984163917 0.008427009325180364 -0.0027438241930181555
22 0.007402573793928094 -0.0005599941036323565 0.0023807919811249956

Bonds

1 7 7 8
2 8 7 9
3 1 1 2
4 5 5 6
5 6 5 7
6 2 2 3
7 3 2 4
8 4 2 5
9 9 9 10
10 10 9 11
11 11 9 15
12 15 15 16
13 16 15 17
14 12 11 12
15 13 11 13
16 14 11 14
17 19 19 20
18 20 19 21
19 21 19 22
20 17 17 18
21 18 17 19

Angles

1 9 5 7 8
2 10 5 7 9
3 15 8 7 9
4 4 2 5 6
5 5 2 5 7
6 11 6 5 7
7 1 1 2 3
8 2 1 2 4
9 3 1 2 5
10 6 3 2 4
11 7 3 2 5
12 8 4 2 5
13 12 7 9 10
14 13 7 9 11
15 14 7 9 15
16 21 10 9 11
17 22 10 9 15
18 23 11 9 15
19 19 9 15 16
20 20 9 15 17
21 29 16 15 17
22 16 9 11 12
23 17 9 11 13
24 18 9 11 14
25 24 12 11 13
26 25 12 11 14
27 26 13 11 14
28 30 17 19 20
29 31 17 19 21
30 32 17 19 22
31 34 20 19 21
32 35 20 19 22
33 36 21 19 22
34 27 15 17 18
35 28 15 17 19
36 33 18 17 19

Dihedrals

1 6 2 7 5 6
2 13 5 7 9 10
3 14 5 7 9 11
4 15 5 7 9 11
5 16 5 7 9 11
6 17 5 7 9 15
7 18 5 7 9 15
8 30 8 7 9 10
9 31 8 7 9 11
10 32 8 7 9 15
11 4 2 5 7 8
12 5 2 5 7 9
13 20 6 5 7 8
14 21 6 5 7 8
15 22 6 5 7 9
16 1 1 2 5 6
17 2 1 2 5 6
18 3 1 2 5 7
19 7 3 2 5 6
20 8 3 2 5 6
21 9 3 2 5 7
22 10 4 2 5 6
23 11 4 2 5 6
24 12 4 2 5 7
25 19 5 9 7 8
26 23 7 9 11 12
27 24 7 9 11 13
28 25 7 9 11 14
29 26 7 9 15 16
30 27 7 9 15 17
31 28 7 9 15 17
32 29 7 9 15 17
33 36 10 9 11 12
34 37 10 9 11 13
35 38 10 9 11 14
36 39 10 9 15 16
37 40 10 9 15 16
38 41 10 9 15 17
39 42 11 9 15 16
40 43 11 9 15 17
41 44 11 9 15 17
42 45 11 9 15 17
43 46 15 9 11 12
44 47 15 9 11 13
45 48 15 9 11 14
46 33 9 15 17 18
47 34 9 15 17 19
48 53 16 15 17 18
49 54 16 15 17 18
50 55 16 15 17 19
51 52 15 19 17 18
52 35 9 17 15 16
53 49 15 17 19 20
54 50 15 17 19 21
55 51 15 17 19 22
56 56 18 17 19 20
57 57 18 17 19 21
58 58 18 17 19 22
