LAMMPS data file via write_data, version 23 Jun 2022, timestep = 1000000

22 atoms
7 atom types
21 bonds
21 bond types
36 angles
36 angle types
58 dihedrals
58 dihedral types

-25 25 xlo xhi
-25 25 ylo yhi
-25 25 zlo zhi

Masses

1 1.008
2 12.01
3 12.01
4 16
5 14.01
6 1.008
7 1.008

Atoms # full

3 1 1 0.1123 1.2836752209656876 -0.3537829963122427 -2.703908613895925 0 0 0
7 2 5 -0.4157 2.964205324705287 0.7521260392661356 -4.241193071530443 0 0 0
1 1 1 0.1123 0.013197030743735672 0.42268962210854283 -3.7446172993364746 0 0 0
5 1 3 0.5972 1.8293835040046462 1.377893218358342 -3.8538369475648993 0 0 0
2 1 2 -0.3662 0.8059220665050727 0.6167010618995574 -3.053937880964524 0 0 0
4 1 1 0.1123 0.4165947757816719 1.1573561589499437 -2.3575431185281963 0 0 0
8 2 6 0.2719 3.078579609157813 -0.16988869704158566 -3.9150363198665303 0 0 0
10 2 7 0.0823 3.7126727161512263 2.4018989699706905 -5.459534476043846 0 0 0
13 2 1 0.0603 5.442208608977493 0.9495074656888182 -3.1768123675421895 0 0 0
9 2 2 0.0337 4.08194369052572 1.467665791271073 -4.901537894535768 0 0 0
6 1 4 -0.5679 1.7076845647645689 2.5642603277163434 -3.996396271043615 0 0 0
15 2 3 0.5973000000000001 4.629457378092987 0.5591042753726626 -6.004157833670816 0 0 0
14 2 1 0.0603 5.978822988490036 2.220476897722985 -4.304264815815032 0 0 0
16 2 4 -0.5679 4.6835388981633725 -0.6699703365786577 -5.775580691726298 0 0 0
21 3 7 0.09760000000000001 4.699887770022557 0.01930141856385457 -8.809679467755563 0 0 0
12 2 1 0.0603 4.696158327457127 2.571738306214176 -2.999112458778002 0 0 0
20 3 7 0.09760000000000001 6.156374826250111 -0.3118019653793922 -8.01438126043879 0 0 0
11 2 2 -0.1825 5.138367318359094 1.8386235425971214 -3.786282194118149 0 0 0
19 3 2 -0.149 5.508715936422862 0.4704980579322211 -8.405524257088658 0 0 0
18 3 6 0.2719 4.746322755075821 2.1932967116927156 -7.275505747235644 0 0 0
17 3 5 -0.4157 4.969727560772517 1.1552162924666955 -7.1832888821548355 0 0 0
22 3 7 0.09760000000000001 6.014350496442151 1.1625526641815596 -9.038869806239376 0 0 0

Velocities

3 -0.00988795352186618 -0.022216255395790224 -0.008195105553099132
7 -0.00454087408572162 0.0036196174122852622 -0.0013465271797605768
1 -0.03141458464064778 -0.0038735854691571503 -0.004599552886163399
5 -0.011223840218455655 -0.008929614385400776 0.004447184555948224
2 0.005811212595149093 -0.0011772672983344698 -0.0004952112310192602
4 -0.005625115231142624 -0.01630115548170481 0.014262311329403251
8 -0.011634177129847566 -0.011607889629941394 0.03235767443048244
10 -0.03116825955787482 0.011382598958809406 -0.02359185079298494
13 0.006393903989744674 -0.010253242757727035 -0.005686169270510282
9 0.0027149053204857465 -0.0023904186587562462 -0.002668483696915608
6 -0.004629116960936904 0.005319514963856577 -0.005798485069840974
15 -0.008730401030039926 0.0036070487229101856 -0.0008328682541560169
14 0.011510315178720278 0.001924542579785908 -0.01920979082615619
16 0.002145055997893396 0.003934970993834253 0.005417199853909704
21 -0.012152675984618545 0.0005574192091291441 -0.016909950681117992
12 0.01088468832509224 0.021229257454751155 -0.0017799089702679267
20 0.0033741971972876574 0.015944409505875796 0.02570975591328651
11 -0.0019185446384524128 0.003803395718528495 -0.006846772512287705
19 0.006051498523722336 0.001487973109666008 -0.001195934193359065
18 0.002515275651874138 -0.0001512916918063375 -0.011116167964588022
17 -0.007600168639753342 -0.010114001764425977 -0.004031562680132751
22 0.016326045505611907 -0.013667890119487946 -0.012236449602455164

Bonds

1 7 7 8
2 8 7 9
3 1 1 2
4 5 5 6
5 6 5 7
6 2 2 3
7 3 2 4
8 4 2 5
9 9 9 10
10 10 9 11
11 11 9 15
12 15 15 16
13 16 15 17
14 12 11 12
15 13 11 13
16 14 11 14
17 19 19 20
18 20 19 21
19 21 19 22
20 17 17 18
21 18 17 19

Angles

1 9 5 7 8
2 10 5 7 9
3 15 8 7 9
4 4 2 5 6
5 5 2 5 7
6 11 6 5 7
7 1 1 2 3
8 2 1 2 4
9 3 1 2 5
10 6 3 2 4
11 7 3 2 5
12 8 4 2 5
13 12 7 9 10
14 13 7 9 11
15 14 7 9 15
16 21 10 9 11
17 22 10 9 15
18 23 11 9 15
19 19 9 15 16
20 20 9 15 17
21 29 16 15 17
22 16 9 11 12
23 17 9 11 13
24 18 9 11 14
25 24 12 11 13
26 25 12 11 14
27 26 13 11 14
28 30 17 19 20
29 31 17 19 21
30 32 17 19 22
31 34 20 19 21
32 35 20 19 22
33 36 21 19 22
34 27 15 17 18
35 28 15 17 19
36 33 18 17 19

Dihedrals

1 6 2 7 5 6
2 13 5 7 9 10
3 14 5 7 9 11
4 15 5 7 9 11
5 16 5 7 9 11
6 17 5 7 9 15
7 18 5 7 9 15
8 30 8 7 9 10
9 31 8 7 9 11
10 32 8 7 9 15
11 4 2 5 7 8
12 5 2 5 7 9
13 20 6 5 7 8
14 21 6 5 7 8
15 22 6 5 7 9
16 1 1 2 5 6
17 2 1 2 5 6
18 3 1 2 5 7
19 7 3 2 5 6
20 8 3 2 5 6
21 9 3 2 5 7
22 10 4 2 5 6
23 11 4 2 5 6
24 12 4 2 5 7
25 19 5 9 7 8
26 23 7 9 11 12
27 24 7 9 11 13
28 25 7 9 11 14
29 26 7 9 15 16
30 27 7 9 15 17
31 28 7 9 15 17
32 29 7 9 15 17
33 36 10 9 11 12
34 37 10 9 11 13
35 38 10 9 11 14
36 39 10 9 15 16
37 40 10 9 15 16
38 41 10 9 15 17
39 42 11 9 15 16
40 43 11 9 15 17
41 44 11 9 15 17
42 45 11 9 15 17
43 46 15 9 11 12
44 47 15 9 11 13
45 48 15 9 11 14
46 33 9 15 17 18
47 34 9 15 17 19
48 53 16 15 17 18
49 54 16 15 17 18
50 55 16 15 17 19
51 52 15 19 17 18
52 35 9 17 15 16
53 49 15 17 19 20
54 50 15 17 19 21
55 51 15 17 19 22
56 56 18 17 19 20
57 57 18 17 19 21
58 58 18 17 19 22
