LAMMPS data file via write_data, version 23 Jun 2022, timestep = 1000000

22 atoms
7 atom types
21 bonds
21 bond types
36 angles
36 angle types
58 dihedrals
58 dihedral types

-25 25 xlo xhi
-25 25 ylo yhi
-25 25 zlo zhi

Masses

1 1.008
2 12.01
3 12.01
4 16
5 14.01
6 1.008
7 1.008

Atoms # full

3 1 1 0.1123 1.1858203207348461 -0.4894127974350532 -2.488934387096321 0 0 0
7 2 5 -0.4157 2.9406593205684697 0.8022227073001742 -4.040161570488012 0 0 0
1 1 1 0.1123 0.07723052021151469 0.2490166064338573 -3.5721141687299767 0 0 0
5 1 3 0.5972 1.8301236460181507 1.4092517026558864 -3.652259797319013 0 0 0
2 1 2 -0.3662 0.8410117963306828 0.5174171532024984 -2.9725265501429723 0 0 0
4 1 1 0.1123 0.5524278083760961 1.0919437660004825 -2.0771664453146164 0 0 0
8 2 6 0.2719 3.0096315898205526 -0.17674204054850778 -3.9289994714336167 0 0 0
10 2 7 0.0823 3.5568224061144127 2.235363930835936 -5.364483061959561 0 0 0
13 2 1 0.0603 5.308761941720158 0.961782813083025 -3.392621745271318 0 0 0
9 2 2 0.0337 3.9789425737113215 1.4491765920539577 -4.824141020242713 0 0 0
6 1 4 -0.5679 1.5513344880011124 2.5516563643226653 -3.8760241116711054 0 0 0
15 2 3 0.5973000000000001 4.579653577507163 0.5247675458112179 -5.993368126934753 0 0 0
14 2 1 0.0603 5.983741877001736 2.0785928530658357 -4.3286335333203105 0 0 0
16 2 4 -0.5679 4.678840911233563 -0.6727189585303573 -5.772296616654805 0 0 0
21 3 7 0.09760000000000001 4.654836906471448 -0.14788582043831808 -8.731870565835761 0 0 0
12 2 1 0.0603 4.7508928384822475 2.7228006656545363 -3.2200839061734103 0 0 0
20 3 7 0.09760000000000001 6.29836405682909 0.16461172350130704 -8.223203732997701 0 0 0
11 2 2 -0.1825 5.028453203287287 1.9280041736293654 -3.8733831691501424 0 0 0
19 3 2 -0.149 5.337885858634877 0.632529997193799 -8.403253645684972 0 0 0
18 3 6 0.2719 4.63942507845596 2.1945713107893825 -7.047754239954121 0 0 0
17 3 5 -0.4157 4.869467702784878 1.166497160420956 -7.142123534771336 0 0 0
22 3 7 0.09760000000000001 5.396701490022309 1.3333166671201089 -9.091598576541726 0 0 0

Velocities

3 -0.006788874255470116 0.0023320692554709478 -0.02303478107279492
7 0.00614715656713473 0.002314381929368795 0.003479848714978969
1 -0.03453459098370601 0.008192907299024802 -0.020205964635180068
5 -3.7817959099270375e-05 -0.00017640789568517702 0.002253840961220415
2 0.00020318307410939398 -0.006554009780263757 0.002779039055380729
4 -0.009601416477724927 0.017510134508066932 0.01126011301901993
8 -0.015320268836832294 0.019648714575819584 -0.008724905413554524
10 0.016102095182923496 0.033104301538870215 -0.019551692048215323
13 -0.0124395152618209 -0.0012361424891391957 0.01782754626944793
9 -0.004646325289234641 -0.003698257384169827 -0.013197773061779995
6 -0.00017710300925140548 0.00021095098862102858 -0.005799577341571313
15 0.0016234892640322417 0.002692415725918025 0.002220786463452868
14 -0.011578395392914567 -0.0025026776881667614 -0.004394637268721996
16 -0.010081613433317342 -0.0028646320950997876 0.0035757909594917
21 -0.007169528127242128 -0.0002402665669221102 -0.030200523884407453
12 0.026755765132745725 0.008910019985187128 -0.005953039519145489
20 -0.017948415406408437 -0.002099264271517301 -0.025835263954209608
11 0.003574841341332566 -0.0022876996175200917 0.0026995934817065246
19 -0.0034492197056226284 -0.008711451793874106 0.0026912863402713525
18 -0.01583668555399845 -0.01564650328911169 -0.0019236757117888218
17 0.0009652809540317006 -0.005021430904378225 0.001355726663905538
22 -0.006168845196887813 0.010334421576074998 0.013587993767962742

Bonds

1 7 7 8
2 8 7 9
3 1 1 2
4 5 5 6
5 6 5 7
6 2 2 3
7 3 2 4
8 4 2 5
9 9 9 10
10 10 9 11
11 11 9 15
12 15 15 16
13 16 15 17
14 12 11 12
15 13 11 13
16 14 11 14
17 19 19 20
18 20 19 21
19 21 19 22
20 17 17 18
21 18 17 19

Angles

1 9 5 7 8
2 10 5 7 9
3 15 8 7 9
4 4 2 5 6
5 5 2 5 7
6 11 6 5 7
7 1 1 2 3
8 2 1 2 4
9 3 1 2 5
10 6 3 2 4
11 7 3 2 5
12 8 4 2 5
13 12 7 9 10
14 13 7 9 11
15 14 7 9 15
16 21 10 9 11
17 22 10 9 15
18 23 11 9 15
19 19 9 15 16
20 20 9 15 17
21 29 16 15 17
22 16 9 11 12
23 17 9 11 13
24 18 9 11 14
25 24 12 11 13
26 25 12 11 14
27 26 13 11 14
28 30 17 19 20
29 31 17 19 21
30 32 17 19 22
31 34 20 19 21
32 35 20 19 22
33 36 21 19 22
34 27 15 17 18
35 28 15 17 19
36 33 18 17 19

Dihedrals

1 6 2 7 5 6
2 13 5 7 9 10
3 14 5 7 9 11
4 15 5 7 9 11
5 16 5 7 9 11
6 17 5 7 9 15
7 18 5 7 9 15
8 30 8 7 9 10
9 31 8 7 9 11
10 32 8 7 9 15
11 4 2 5 7 8
12 5 2 5 7 9
13 20 6 5 7 8
14 21 6 5 7 8
15 22 6 5 7 9
16 1 1 2 5 6
17 2 1 2 5 6
18 3 1 2 5 7
19 7 3 2 5 6
20 8 3 2 5 6
21 9 3 2 5 7
22 10 4 2 5 6
23 11 4 2 5 6
24 12 4 2 5 7
25 19 5 9 7 8
26 23 7 9 11 12
27 24 7 9 11 13
28 25 7 9 11 14
29 26 7 9 15 16
30 27 7 9 15 17
31 28 7 9 15 17
32 29 7 9 15 17
33 36 10 9 11 12
34 37 10 9 11 13
35 38 10 9 11 14
36 39 10 9 15 16
37 40 10 9 15 16
38 41 10 9 15 17
39 42 11 9 15 16
40 43 11 9 15 17
41 44 11 9 15 17
42 45 11 9 15 17
43 46 15 9 11 12
44 47 15 9 11 13
45 48 15 9 11 14
46 33 9 15 17 18
47 34 9 15 17 19
48 53 16 15 17 18
49 54 16 15 17 18
50 55 16 15 17 19
51 52 15 19 17 18
52 35 9 17 15 16
53 49 15 17 19 20
54 50 15 17 19 21
55 51 15 17 19 22
56 56 18 17 19 20
57 57 18 17 19 21
58 58 18 17 19 22
