LAMMPS data file via write_data, version 23 Jun 2022, timestep = 1000000

22 atoms
7 atom types
21 bonds
21 bond types
36 angles
36 angle types
58 dihedrals
58 dihedral types

-25 25 xlo xhi
-25 25 ylo yhi
-25 25 zlo zhi

Masses

1 1.008
2 12.01
3 12.01
4 16
5 14.01
6 1.008
7 1.008

Atoms # full

3 1 1 0.1123 1.3646771322106086 -0.18399846468613393 -2.548574938001516 0 0 0
7 2 5 -0.4157 2.946625128848535 0.8051290612847434 -4.254752917960888 0 0 0
1 1 1 0.1123 0.047138704315012686 0.2817990436128869 -3.766263472716534 0 0 0
5 1 3 0.5972 1.8609773674636307 1.4598551253054413 -3.8113100162293247 0 0 0
2 1 2 -0.3662 0.8418924336032679 0.5945108162728839 -3.022056807703832 0 0 0
4 1 1 0.1123 0.47376574683608114 1.2414409591357645 -2.2196931648453906 0 0 0
8 2 6 0.2719 2.993892568289875 -0.1500180835160975 -4.028473958703335 0 0 0
10 2 7 0.0823 3.6290525208754385 2.4560671822188023 -5.290882358474957 0 0 0
13 2 1 0.0603 5.220399029188531 1.0967559460928271 -3.132193481705644 0 0 0
9 2 2 0.0337 4.059214294537464 1.5232993970065314 -4.891190053470746 0 0 0
6 1 4 -0.5679 1.5700829164927892 2.633690920811098 -4.0348867215065605 0 0 0
15 2 3 0.5973000000000001 4.568780665038488 0.5830011173210778 -5.982047256143689 0 0 0
14 2 1 0.0603 6.021420709171503 2.352325179590238 -4.225772458200487 0 0 0
16 2 4 -0.5679 4.6782816328576695 -0.6318029501464901 -5.760705543581587 0 0 0
21 3 7 0.09760000000000001 4.688322910742407 0.011782949696541943 -8.824211747971416 0 0 0
12 2 1 0.0603 4.505686828163448 2.7268361454882504 -3.2272089640336743 0 0 0
20 3 7 0.09760000000000001 6.159312541179354 -0.21391090414207775 -7.897903634690251 0 0 0
11 2 2 -0.1825 5.072150720075598 1.9809570716427152 -3.832330488883429 0 0 0
19 3 2 -0.149 5.442194442089437 0.47172165776252883 -8.302261013273737 0 0 0
18 3 6 0.2719 4.84609546990868 2.130048441430909 -7.186271722777431 0 0 0
17 3 5 -0.4157 4.978418413264812 1.1237229497349468 -7.13001862783061 0 0 0
22 3 7 0.09760000000000001 5.9379923427758685 1.2137001540422077 -8.909343597720808 0 0 0

Velocities

3 0.01693098918879641 -0.003426894258804201 0.006190819583761557
7 -0.004778284477827627 -0.00401650988785277 -0.0037419635055176963
1 -0.008177220557724938 2.7240836903059647e-05 -0.003666430128125376
5 0.0019568576825180263 -0.008175715034834677 -0.004680847587890275
2 -0.0026242343569419847 -0.002388126289994852 -0.0004298056108017496
4 0.008470168261253293 0.02065334925739664 -0.0075296310053593425
8 -0.008023848469494775 0.019371114905843003 -0.0035066507591932313
10 0.02173770833052012 0.017538022483203818 2.8730220409081426e-05
13 -0.0010385360461447808 -0.01591648198174254 0.020328245132864603
9 -0.008547980725162179 -0.002545667874769106 -0.005451816110999341
6 0.008334534122908348 0.004560134892660283 -0.0003649922498367285
15 -0.007897820069349065 0.0005403286850729325 -0.005566702914564868
14 0.006069547468549363 0.01034495568716264 0.025504036108012475
16 0.0031304712433239583 -0.0033333786394851433 0.0015489963574812416
21 -0.0040785151170537 0.011969211121067285 -0.012206394749201818
12 0.011553529076271968 -0.0359763861361002 0.018154665090308168
20 0.013117552922058684 0.004030629686245411 -0.014056795839657448
11 -0.004404271959370633 0.0030833343493452234 0.0005544550102424616
19 0.006679407415625827 0.005053814702439246 -0.0026627903845038545
18 -0.0012838000046212867 -0.032066548202146404 0.005850053053330927
17 -0.004514992197853135 0.004378176532550124 -0.006579843874496742
22 0.0014892959803634847 -0.0006081791426723359 -0.005390060880773538

Bonds

1 7 7 8
2 8 7 9
3 1 1 2
4 5 5 6
5 6 5 7
6 2 2 3
7 3 2 4
8 4 2 5
9 9 9 10
10 10 9 11
11 11 9 15
12 15 15 16
13 16 15 17
14 12 11 12
15 13 11 13
16 14 11 14
17 19 19 20
18 20 19 21
19 21 19 22
20 17 17 18
21 18 17 19

Angles

1 9 5 7 8
2 10 5 7 9
3 15 8 7 9
4 4 2 5 6
5 5 2 5 7
6 11 6 5 7
7 1 1 2 3
8 2 1 2 4
9 3 1 2 5
10 6 3 2 4
11 7 3 2 5
12 8 4 2 5
13 12 7 9 10
14 13 7 9 11
15 14 7 9 15
16 21 10 9 11
17 22 10 9 15
18 23 11 9 15
19 19 9 15 16
20 20 9 15 17
21 29 16 15 17
22 16 9 11 12
23 17 9 11 13
24 18 9 11 14
25 24 12 11 13
26 25 12 11 14
27 26 13 11 14
28 30 17 19 20
29 31 17 19 21
30 32 17 19 22
31 34 20 19 21
32 35 20 19 22
33 36 21 19 22
34 27 15 17 18
35 28 15 17 19
36 33 18 17 19

Dihedrals

1 6 2 7 5 6
2 13 5 7 9 10
3 14 5 7 9 11
4 15 5 7 9 11
5 16 5 7 9 11
6 17 5 7 9 15
7 18 5 7 9 15
8 30 8 7 9 10
9 31 8 7 9 11
10 32 8 7 9 15
11 4 2 5 7 8
12 5 2 5 7 9
13 20 6 5 7 8
14 21 6 5 7 8
15 22 6 5 7 9
16 1 1 2 5 6
17 2 1 2 5 6
18 3 1 2 5 7
19 7 3 2 5 6
20 8 3 2 5 6
21 9 3 2 5 7
22 10 4 2 5 6
23 11 4 2 5 6
24 12 4 2 5 7
25 19 5 9 7 8
26 23 7 9 11 12
27 24 7 9 11 13
28 25 7 9 11 14
29 26 7 9 15 16
30 27 7 9 15 17
31 28 7 9 15 17
32 29 7 9 15 17
33 36 10 9 11 12
34 37 10 9 11 13
35 38 10 9 11 14
36 39 10 9 15 16
37 40 10 9 15 16
38 41 10 9 15 17
39 42 11 9 15 16
40 43 11 9 15 17
41 44 11 9 15 17
42 45 11 9 15 17
43 46 15 9 11 12
44 47 15 9 11 13
45 48 15 9 11 14
46 33 9 15 17 18
47 34 9 15 17 19
48 53 16 15 17 18
49 54 16 15 17 18
50 55 16 15 17 19
51 52 15 19 17 18
52 35 9 17 15 16
53 49 15 17 19 20
54 50 15 17 19 21
55 51 15 17 19 22
56 56 18 17 19 20
57 57 18 17 19 21
58 58 18 17 19 22
