LAMMPS data file via write_data, version 23 Jun 2022, timestep = 1000000

22 atoms
7 atom types
21 bonds
21 bond types
36 angles
36 angle types
58 dihedrals
58 dihedral types

-25 25 xlo xhi
-25 25 ylo yhi
-25 25 zlo zhi

Masses

1 1.008
2 12.01
3 12.01
4 16
5 14.01
6 1.008
7 1.008

Atoms # full

3 1 1 0.1123 1.247283043724762 -0.36566338117712527 -2.6193316166333536 0 0 0
7 2 5 -0.4157 2.920440522377734 0.866244168730809 -4.154992161635402 0 0 0
1 1 1 0.1123 0.09565625647194027 0.09373786380323887 -3.8935660882913754 0 0 0
5 1 3 0.5972 1.7939350479279492 1.4395525646222505 -3.785132442936768 0 0 0
2 1 2 -0.3662 0.6830628480843287 0.5426277579426941 -3.1196775899178815 0 0 0
4 1 1 0.1123 0.08335091415147011 1.1072497481571744 -2.4215452757149807 0 0 0
8 2 6 0.2719 3.183048856742187 0.009396447076091892 -3.9470366787195186 0 0 0
10 2 7 0.0823 3.7301050884169062 2.4721165625107977 -5.341672088780799 0 0 0
13 2 1 0.0603 5.615969601219328 0.9887769088788804 -3.5242844321064806 0 0 0
9 2 2 0.0337 4.016865692018638 1.5671435174946684 -4.882856836175968 0 0 0
6 1 4 -0.5679 1.6080301621392592 2.646425592482464 -4.042681938663303 0 0 0
15 2 3 0.5973000000000001 4.6046444868322345 0.6763989083600601 -5.9790442147043015 0 0 0
14 2 1 0.0603 5.8508880492366675 2.6792078666714354 -4.028117738893188 0 0 0
16 2 4 -0.5679 4.680483099736162 -0.5351161469940362 -5.760737000979335 0 0 0
21 3 7 0.09760000000000001 4.492753253573682 -0.1272197510967036 -8.70864047681635 0 0 0
12 2 1 0.0603 4.598781726841445 2.2984100174398066 -2.881062365842089 0 0 0
20 3 7 0.09760000000000001 6.2157027459292316 -0.18518979029985705 -8.06915174297615 0 0 0
11 2 2 -0.1825 5.102782551812295 1.9272506887103469 -3.8369060292575967 0 0 0
19 3 2 -0.149 5.3864450177905825 0.47254002731054867 -8.3766673145596 0 0 0
18 3 6 0.2719 4.8430016182721864 2.2417058314891722 -7.255410102517579 0 0 0
17 3 5 -0.4157 4.993178468239717 1.297365275550818 -7.143162074020005 0 0 0
22 3 7 0.09760000000000001 5.6206798116884835 1.2755414946916233 -9.246774382139307 0 0 0

Velocities

3 -0.04494429945360174 0.01394167023692108 -0.012753906004802987
7 0.0004364583283450882 0.008360655566721279 0.004015925431405361
1 0.021568872910323278 -0.008679001460413992 0.013644504783020088
5 -0.0077963045486989825 -0.0033965035867307113 -0.0002595810883519816
2 0.003912111238888264 0.005988566264001562 0.002217056740026897
4 -0.002709762636611201 0.01144710406357222 -0.012411277612639063
8 0.0041679674045902995 -0.0016231447481196964 -0.006946834235140433
10 -0.0036954492875966465 -0.00428080015116361 0.002978708981019863
13 0.01150443343075009 0.012467079284952182 0.007373666695319356
9 -0.003457719424408018 -0.00441668265490621 0.00605395341764105
6 -0.0033561980101166297 -0.001541678399364399 -0.0059910863655054086
15 0.0012130251522564821 0.00039434374160526674 0.005381901171753975
14 0.02231316601188581 0.006003633382728357 -0.024390811750887108
16 -0.0020046911056940506 0.004443169457833612 -0.00364883325700474
21 -0.0078698074177694 0.012595628559512574 -0.005038683661782237
12 0.0023263861437420987 -0.008285906286442256 0.005870233269679378
20 0.008368321493032987 0.015397354295362983 0.010063536409674164
11 0.0036364569197442653 -0.008964836940937183 -0.0032165442052638233
19 0.014788925152738308 -0.010010391249669584 0.0017899066268018823
18 0.012430931648770531 0.039278097816303294 -0.018277727491713785
17 0.002398180273863905 -0.0020477227805136876 0.0015883456717436122
22 0.021857161483307932 0.015881462586642074 -0.00889465570869202

Bonds

1 7 7 8
2 8 7 9
3 1 1 2
4 5 5 6
5 6 5 7
6 2 2 3
7 3 2 4
8 4 2 5
9 9 9 10
10 10 9 11
11 11 9 15
12 15 15 16
13 16 15 17
14 12 11 12
15 13 11 13
16 14 11 14
17 19 19 20
18 20 19 21
19 21 19 22
20 17 17 18
21 18 17 19

Angles

1 9 5 7 8
2 10 5 7 9
3 15 8 7 9
4 4 2 5 6
5 5 2 5 7
6 11 6 5 7
7 1 1 2 3
8 2 1 2 4
9 3 1 2 5
10 6 3 2 4
11 7 3 2 5
12 8 4 2 5
13 12 7 9 10
14 13 7 9 11
15 14 7 9 15
16 21 10 9 11
17 22 10 9 15
18 23 11 9 15
19 19 9 15 16
20 20 9 15 17
21 29 16 15 17
22 16 9 11 12
23 17 9 11 13
24 18 9 11 14
25 24 12 11 13
26 25 12 11 14
27 26 13 11 14
28 30 17 19 20
29 31 17 19 21
30 32 17 19 22
31 34 20 19 21
32 35 20 19 22
33 36 21 19 22
34 27 15 17 18
35 28 15 17 19
36 33 18 17 19

Dihedrals

1 6 2 7 5 6
2 13 5 7 9 10
3 14 5 7 9 11
4 15 5 7 9 11
5 16 5 7 9 11
6 17 5 7 9 15
7 18 5 7 9 15
8 30 8 7 9 10
9 31 8 7 9 11
10 32 8 7 9 15
11 4 2 5 7 8
12 5 2 5 7 9
13 20 6 5 7 8
14 21 6 5 7 8
15 22 6 5 7 9
16 1 1 2 5 6
17 2 1 2 5 6
18 3 1 2 5 7
19 7 3 2 5 6
20 8 3 2 5 6
21 9 3 2 5 7
22 10 4 2 5 6
23 11 4 2 5 6
24 12 4 2 5 7
25 19 5 9 7 8
26 23 7 9 11 12
27 24 7 9 11 13
28 25 7 9 11 14
29 26 7 9 15 16
30 27 7 9 15 17
31 28 7 9 15 17
32 29 7 9 15 17
33 36 10 9 11 12
34 37 10 9 11 13
35 38 10 9 11 14
36 39 10 9 15 16
37 40 10 9 15 16
38 41 10 9 15 17
39 42 11 9 15 16
40 43 11 9 15 17
41 44 11 9 15 17
42 45 11 9 15 17
43 46 15 9 11 12
44 47 15 9 11 13
45 48 15 9 11 14
46 33 9 15 17 18
47 34 9 15 17 19
48 53 16 15 17 18
49 54 16 15 17 18
50 55 16 15 17 19
51 52 15 19 17 18
52 35 9 17 15 16
53 49 15 17 19 20
54 50 15 17 19 21
55 51 15 17 19 22
56 56 18 17 19 20
57 57 18 17 19 21
58 58 18 17 19 22
