LAMMPS data file via write_data, version 23 Jun 2022, timestep = 1000000

22 atoms
7 atom types
21 bonds
21 bond types
36 angles
36 angle types
58 dihedrals
58 dihedral types

-25 25 xlo xhi
-25 25 ylo yhi
-25 25 zlo zhi

Masses

1 1.008
2 12.01
3 12.01
4 16
5 14.01
6 1.008
7 1.008

Atoms # full

3 1 1 0.1123 1.313727694108564 -0.27315377715431804 -2.4260800142800236 0 0 0
7 2 5 -0.4157 2.943671857452601 0.7788190064384428 -4.157202576641128 0 0 0
1 1 1 0.1123 0.16569166523969162 0.1467918636369788 -3.6189097769252725 0 0 0
5 1 3 0.5972 1.8328841244023921 1.4378792877497106 -3.686114613446202 0 0 0
2 1 2 -0.3662 0.7921637509677456 0.5660782980084563 -2.9838597119259767 0 0 0
4 1 1 0.1123 0.34000683582350344 1.1555015366849894 -2.1710268815099787 0 0 0
8 2 6 0.2719 3.0465651448055615 -0.14788816632237198 -3.8909958186260822 0 0 0
10 2 7 0.0823 3.6553702174655345 2.4043533475645416 -5.216906831278514 0 0 0
13 2 1 0.0603 5.401913743561539 0.8352495180784713 -3.2814851752749457 0 0 0
9 2 2 0.0337 3.9836026187569176 1.5546602940203182 -4.880994300973636 0 0 0
6 1 4 -0.5679 1.5622636105443133 2.6236555151753644 -3.913005038801264 0 0 0
15 2 3 0.5973000000000001 4.504584654041467 0.5865325891013398 -5.997863135572926 0 0 0
14 2 1 0.0603 5.94166200307768 2.3174926389309607 -4.343408069104982 0 0 0
16 2 4 -0.5679 4.656530847230506 -0.6467354471951515 -5.793765941025446 0 0 0
21 3 7 0.09760000000000001 4.635499305821631 -0.016541784451146742 -8.77924704658969 0 0 0
12 2 1 0.0603 4.669687700749929 2.5832202315696713 -3.2279309337250486 0 0 0
20 3 7 0.09760000000000001 6.271086045490265 -0.05596559888337592 -8.057341717889475 0 0 0
11 2 2 -0.1825 5.086771432027813 1.8192420318247513 -3.8448762087443065 0 0 0
19 3 2 -0.149 5.443347187571744 0.5560433182389535 -8.30940241804184 0 0 0
18 3 6 0.2719 4.84994912018069 2.3043572403903108 -7.099513217945737 0 0 0
17 3 5 -0.4157 4.898095250420621 1.2008229699682067 -7.167576313294257 0 0 0
22 3 7 0.09760000000000001 5.691305985855845 1.2431275170515035 -9.098130959316522 0 0 0

Velocities

3 0.006732937874269417 -0.006047970285163134 -0.013298491075122168
7 0.004553951206304174 -0.004443862158566888 0.004089415072865734
1 -0.0022466264947196488 0.00520313904415995 0.02591182148483405
5 -0.008470763918289853 -0.0017307389326077691 -0.0009950840742031677
2 -0.003217761600536705 -0.002057245218712175 0.010130939633218004
4 0.01853572142001563 -0.015090334190961282 -0.004722204070060389
8 -0.004252043963668102 -0.023592950283715945 -0.006010580356080601
10 -0.01821496994308854 0.011618987243000953 0.014577499745558893
13 -0.020794507506939786 0.007635540935183085 0.02138187980928829
9 -0.003900398705416718 -0.0011476938046267155 -0.0044131312760024004
6 0.000890710731925307 0.0039138008197856285 9.513802006037072e-05
15 0.006161303631240975 0.000576846209108127 0.006621236488890507
14 0.0017884119914996191 -0.003228298288392489 -0.006053788768268104
16 -0.002293665208958852 0.0036981761274218978 -0.0008747364917287478
21 -0.005238262353109929 -0.02206788670229405 0.018425473543368914
12 0.01125746635238504 -0.016594675531198057 -0.0222394506326743
20 -0.014363477595251566 -0.013156872556582995 0.016597452447883947
11 0.0022874751464278613 0.004163365390739183 -3.570717163354809e-05
19 0.0015585415710134222 -0.009134684579245463 -0.0044554602928129254
18 0.0016776097681780724 0.013239687538427802 0.011203104472890227
17 -0.0048002228462625226 -0.009481159983856617 -0.0008262392466356864
22 -0.009613518251299401 0.013193671463800766 -0.0026523630016056414

Bonds

1 7 7 8
2 8 7 9
3 1 1 2
4 5 5 6
5 6 5 7
6 2 2 3
7 3 2 4
8 4 2 5
9 9 9 10
10 10 9 11
11 11 9 15
12 15 15 16
13 16 15 17
14 12 11 12
15 13 11 13
16 14 11 14
17 19 19 20
18 20 19 21
19 21 19 22
20 17 17 18
21 18 17 19

Angles

1 9 5 7 8
2 10 5 7 9
3 15 8 7 9
4 4 2 5 6
5 5 2 5 7
6 11 6 5 7
7 1 1 2 3
8 2 1 2 4
9 3 1 2 5
10 6 3 2 4
11 7 3 2 5
12 8 4 2 5
13 12 7 9 10
14 13 7 9 11
15 14 7 9 15
16 21 10 9 11
17 22 10 9 15
18 23 11 9 15
19 19 9 15 16
20 20 9 15 17
21 29 16 15 17
22 16 9 11 12
23 17 9 11 13
24 18 9 11 14
25 24 12 11 13
26 25 12 11 14
27 26 13 11 14
28 30 17 19 20
29 31 17 19 21
30 32 17 19 22
31 34 20 19 21
32 35 20 19 22
33 36 21 19 22
34 27 15 17 18
35 28 15 17 19
36 33 18 17 19

Dihedrals

1 6 2 7 5 6
2 13 5 7 9 10
3 14 5 7 9 11
4 15 5 7 9 11
5 16 5 7 9 11
6 17 5 7 9 15
7 18 5 7 9 15
8 30 8 7 9 10
9 31 8 7 9 11
10 32 8 7 9 15
11 4 2 5 7 8
12 5 2 5 7 9
13 20 6 5 7 8
14 21 6 5 7 8
15 22 6 5 7 9
16 1 1 2 5 6
17 2 1 2 5 6
18 3 1 2 5 7
19 7 3 2 5 6
20 8 3 2 5 6
21 9 3 2 5 7
22 10 4 2 5 6
23 11 4 2 5 6
24 12 4 2 5 7
25 19 5 9 7 8
26 23 7 9 11 12
27 24 7 9 11 13
28 25 7 9 11 14
29 26 7 9 15 16
30 27 7 9 15 17
31 28 7 9 15 17
32 29 7 9 15 17
33 36 10 9 11 12
34 37 10 9 11 13
35 38 10 9 11 14
36 39 10 9 15 16
37 40 10 9 15 16
38 41 10 9 15 17
39 42 11 9 15 16
40 43 11 9 15 17
41 44 11 9 15 17
42 45 11 9 15 17
43 46 15 9 11 12
44 47 15 9 11 13
45 48 15 9 11 14
46 33 9 15 17 18
47 34 9 15 17 19
48 53 16 15 17 18
49 54 16 15 17 18
50 55 16 15 17 19
51 52 15 19 17 18
52 35 9 17 15 16
53 49 15 17 19 20
54 50 15 17 19 21
55 51 15 17 19 22
56 56 18 17 19 20
57 57 18 17 19 21
58 58 18 17 19 22
