LAMMPS data file via write_data, version 23 Jun 2022, timestep = 1000000

22 atoms
7 atom types
21 bonds
21 bond types
36 angles
36 angle types
58 dihedrals
58 dihedral types

-25 25 xlo xhi
-25 25 ylo yhi
-25 25 zlo zhi

Masses

1 1.008
2 12.01
3 12.01
4 16
5 14.01
6 1.008
7 1.008

Atoms # full

3 1 1 0.1123 1.4313376731333505 -0.06435431195934425 -2.43431325421443 0 0 0
7 2 5 -0.4157 2.975950321361877 0.8100848576319809 -4.205634487327437 0 0 0
1 1 1 0.1123 0.42942559592272256 0.1255998098372602 -3.706642694082626 0 0 0
5 1 3 0.5972 1.9157810169048177 1.449728662511558 -3.768183975425409 0 0 0
2 1 2 -0.3662 0.9132351851969134 0.6352657074365182 -3.0002903537696524 0 0 0
4 1 1 0.1123 0.20241014220364853 1.2774849145647411 -2.432439179889182 0 0 0
8 2 6 0.2719 3.0470741384980125 -0.21000361497595293 -4.047714757777911 0 0 0
10 2 7 0.0823 3.599555017638593 2.3987438300748423 -5.341406956699428 0 0 0
13 2 1 0.0603 5.6627490259043975 1.079372128566748 -3.421895437008982 0 0 0
9 2 2 0.0337 4.0444609444147295 1.5480187843264963 -4.848399271926203 0 0 0
6 1 4 -0.5679 1.6580055901747695 2.621418680838998 -3.970180902165633 0 0 0
15 2 3 0.5973000000000001 4.625802970865901 0.6775437356721058 -5.940732284408497 0 0 0
14 2 1 0.0603 5.70398178894459 2.816259564474125 -4.102486352019169 0 0 0
16 2 4 -0.5679 4.6897012854504 -0.5474699036933679 -5.802258193461875 0 0 0
21 3 7 0.09760000000000001 4.423281505625096 0.5873325174822611 -8.926821795204852 0 0 0
12 2 1 0.0603 4.5762988224519 2.179773697127962 -2.778200436766526 0 0 0
20 3 7 0.09760000000000001 5.765972843089421 -0.37868257051093596 -8.233348042805993 0 0 0
11 2 2 -0.1825 5.022279164569609 1.8709328728192907 -3.7596881278859393 0 0 0
19 3 2 -0.149 5.314909706433398 0.6747524362667107 -8.378452637888977 0 0 0
18 3 6 0.2719 5.12698354502424 2.2733589127728004 -6.949037808313492 0 0 0
17 3 5 -0.4157 5.088762264499799 1.312338213310323 -7.041891913439983 0 0 0
22 3 7 0.09760000000000001 6.000574681455258 1.337360159470714 -8.987599936900933 0 0 0

Velocities

3 -0.028283172145145374 -0.0017512356918304908 -0.014301975359962991
7 0.0007197103263641117 -0.005286457036863222 -0.0022760675878314377
1 -0.009678309799385337 -0.017744078170082868 -0.002698544565461154
5 -0.0008494757709807648 -0.00097132388306688 -0.0019428896612286323
2 -0.003204572210589715 -0.000490635058065613 -5.893363854219456e-05
4 0.002916064783607913 0.019527573031720216 0.013647466933428722
8 0.011629219507360622 -0.022115304881724744 0.02518700814776017
10 0.032461825677691555 -0.008540642416219664 0.016439757816730825
13 0.0181161043276796 -0.00937718658323108 0.008046521524147377
9 -0.0005655322226789991 0.002783273328080116 -0.010269317359115916
6 -0.0024700616958009698 0.004490047771211182 -0.006314393824894773
15 -0.0020185589980769095 0.0022489838907357356 -0.0037718160537286833
14 -0.02387816293643928 -0.01055275495856113 -0.004723087995879161
16 -0.0009939135767019357 0.0018695302806752345 -0.0019410041008546982
21 0.0009235473193305421 -0.004846208328042636 0.00509408469983694
12 0.00025996751046657596 -0.008322291320747684 -0.006387468206244298
20 0.00576461325308824 0.0033147918018636984 -0.0020513853313679806
11 0.004880855054872698 0.008064167252770269 -0.0058187800151280715
19 0.000983167771272198 -0.003212516523610381 0.0021969199454345235
18 -0.023849777661786573 0.030130868982926197 -0.0006056070505841835
17 0.006885703426663119 -0.0031428169553461803 -0.007279898876343154
22 -0.017797144088337425 -0.01562964783182235 -0.0073845384074011835

Bonds

1 7 7 8
2 8 7 9
3 1 1 2
4 5 5 6
5 6 5 7
6 2 2 3
7 3 2 4
8 4 2 5
9 9 9 10
10 10 9 11
11 11 9 15
12 15 15 16
13 16 15 17
14 12 11 12
15 13 11 13
16 14 11 14
17 19 19 20
18 20 19 21
19 21 19 22
20 17 17 18
21 18 17 19

Angles

1 9 5 7 8
2 10 5 7 9
3 15 8 7 9
4 4 2 5 6
5 5 2 5 7
6 11 6 5 7
7 1 1 2 3
8 2 1 2 4
9 3 1 2 5
10 6 3 2 4
11 7 3 2 5
12 8 4 2 5
13 12 7 9 10
14 13 7 9 11
15 14 7 9 15
16 21 10 9 11
17 22 10 9 15
18 23 11 9 15
19 19 9 15 16
20 20 9 15 17
21 29 16 15 17
22 16 9 11 12
23 17 9 11 13
24 18 9 11 14
25 24 12 11 13
26 25 12 11 14
27 26 13 11 14
28 30 17 19 20
29 31 17 19 21
30 32 17 19 22
31 34 20 19 21
32 35 20 19 22
33 36 21 19 22
34 27 15 17 18
35 28 15 17 19
36 33 18 17 19

Dihedrals

1 6 2 7 5 6
2 13 5 7 9 10
3 14 5 7 9 11
4 15 5 7 9 11
5 16 5 7 9 11
6 17 5 7 9 15
7 18 5 7 9 15
8 30 8 7 9 10
9 31 8 7 9 11
10 32 8 7 9 15
11 4 2 5 7 8
12 5 2 5 7 9
13 20 6 5 7 8
14 21 6 5 7 8
15 22 6 5 7 9
16 1 1 2 5 6
17 2 1 2 5 6
18 3 1 2 5 7
19 7 3 2 5 6
20 8 3 2 5 6
21 9 3 2 5 7
22 10 4 2 5 6
23 11 4 2 5 6
24 12 4 2 5 7
25 19 5 9 7 8
26 23 7 9 11 12
27 24 7 9 11 13
28 25 7 9 11 14
29 26 7 9 15 16
30 27 7 9 15 17
31 28 7 9 15 17
32 29 7 9 15 17
33 36 10 9 11 12
34 37 10 9 11 13
35 38 10 9 11 14
36 39 10 9 15 16
37 40 10 9 15 16
38 41 10 9 15 17
39 42 11 9 15 16
40 43 11 9 15 17
41 44 11 9 15 17
42 45 11 9 15 17
43 46 15 9 11 12
44 47 15 9 11 13
45 48 15 9 11 14
46 33 9 15 17 18
47 34 9 15 17 19
48 53 16 15 17 18
49 54 16 15 17 18
50 55 16 15 17 19
51 52 15 19 17 18
52 35 9 17 15 16
53 49 15 17 19 20
54 50 15 17 19 21
55 51 15 17 19 22
56 56 18 17 19 20
57 57 18 17 19 21
58 58 18 17 19 22
