LAMMPS data file via write_data, version 23 Jun 2022, timestep = 1000000

22 atoms
7 atom types
21 bonds
21 bond types
36 angles
36 angle types
58 dihedrals
58 dihedral types

-25 25 xlo xhi
-25 25 ylo yhi
-25 25 zlo zhi

Masses

1 1.008
2 12.01
3 12.01
4 16
5 14.01
6 1.008
7 1.008

Atoms # full

3 1 1 0.1123 1.466119963521629 -0.3145895788888138 -2.6521189434851924 0 0 0
7 2 5 -0.4157 2.941252164973174 0.7695816480407923 -4.051581025232457 0 0 0
1 1 1 0.1123 -0.08597508969486989 0.20999368235818924 -3.640747386794316 0 0 0
5 1 3 0.5972 1.8237181443475827 1.375152767161351 -3.657590123801642 0 0 0
2 1 2 -0.3662 0.8524280291622612 0.49896094391663043 -2.943280448268603 0 0 0
4 1 1 0.1123 0.499799161910298 1.0409702729339552 -2.0650044101541853 0 0 0
8 2 6 0.2719 3.157570754057982 -0.1668069578101839 -3.762350452199717 0 0 0
10 2 7 0.0823 3.6314385284432125 2.2735271102439647 -5.244679622234698 0 0 0
13 2 1 0.0603 5.572479884103258 0.8430102273306407 -3.4164074981727417 0 0 0
9 2 2 0.0337 3.976067424382528 1.4373115224720017 -4.821414399069865 0 0 0
6 1 4 -0.5679 1.6118083506532477 2.5456479774005367 -3.884601740208352 0 0 0
15 2 3 0.5973000000000001 4.538623928689536 0.5616741682087834 -5.9465616159360435 0 0 0
14 2 1 0.0603 5.833424399760491 2.3157331208121206 -4.3950366035955195 0 0 0
16 2 4 -0.5679 4.711565752282034 -0.6297286680719509 -5.779609134845359 0 0 0
21 3 7 0.09760000000000001 4.667732521408087 -0.03941258235106642 -8.799343676869706 0 0 0
12 2 1 0.0603 4.648543507995326 2.321964716990928 -2.9583716961797943 0 0 0
20 3 7 0.09760000000000001 6.405253996820966 0.12479416271612168 -8.29687939071752 0 0 0
11 2 2 -0.1825 5.150605198516168 1.7357031222946322 -3.819872394865878 0 0 0
19 3 2 -0.149 5.407963707649946 0.6846517034434764 -8.394286301757377 0 0 0
18 3 6 0.2719 4.710480401508848 2.2217276467568006 -7.111280597585498 0 0 0
17 3 5 -0.4157 4.812625311999958 1.1968027194215989 -7.112799438116297 0 0 0
22 3 7 0.09760000000000001 5.702311626472778 1.4380343941186964 -9.172250055209757 0 0 0

Velocities

3 0.012919832620128196 0.05258191622285681 0.003267004495870109
7 0.0011013452279188293 4.800009821879212e-06 0.0025505821307986965
1 0.004194221443173935 -0.026869163092308176 -0.005328595195622427
5 0.00013838088016732977 0.006204840238473557 -0.0027220306388506497
2 -0.011025700712345078 0.003278113416006279 -0.003830806497722294
4 -0.009650431003021149 0.0013215423380071212 -0.022966275993015952
8 -0.0022542754215412082 0.03883158001088941 0.0008287394817412519
10 0.005131815323353957 0.002760970732406164 -0.028433816865983313
13 -0.014241443603452945 0.00883650164463033 -0.009423018844776913
9 -0.00385077521452914 -0.002832519466745197 -0.006713026091914768
6 0.0068424103013581105 -0.003719990025416331 0.004491843033795545
15 0.00744053325744406 -0.004799096280430472 -0.00018515024197410365
14 -0.0038527447473027045 -0.028414147663632594 -0.008610969275075733
16 0.001164476797401736 -0.007524991371995146 0.0028759987395772114
21 -0.006308445927149653 -0.010404932831708605 0.024563671101645774
12 -0.008102109133260389 -0.031352122448831385 -0.013611581173963279
20 -0.012479763355281111 0.020141638545623706 -0.0016014135699977186
11 0.0026243660348370325 -0.0012988768764549525 0.0057859410229285585
19 0.002979593624043079 0.0052094941622995074 -0.00057431886531599
18 0.011852710137104771 0.021811688427432016 -0.018418547105167146
17 0.0026922350409618457 -0.0011637208784644457 -0.0017697793467803529
22 0.0005419449308522563 0.0064290165057723095 0.018806273785862096

Bonds

1 7 7 8
2 8 7 9
3 1 1 2
4 5 5 6
5 6 5 7
6 2 2 3
7 3 2 4
8 4 2 5
9 9 9 10
10 10 9 11
11 11 9 15
12 15 15 16
13 16 15 17
14 12 11 12
15 13 11 13
16 14 11 14
17 19 19 20
18 20 19 21
19 21 19 22
20 17 17 18
21 18 17 19

Angles

1 9 5 7 8
2 10 5 7 9
3 15 8 7 9
4 4 2 5 6
5 5 2 5 7
6 11 6 5 7
7 1 1 2 3
8 2 1 2 4
9 3 1 2 5
10 6 3 2 4
11 7 3 2 5
12 8 4 2 5
13 12 7 9 10
14 13 7 9 11
15 14 7 9 15
16 21 10 9 11
17 22 10 9 15
18 23 11 9 15
19 19 9 15 16
20 20 9 15 17
21 29 16 15 17
22 16 9 11 12
23 17 9 11 13
24 18 9 11 14
25 24 12 11 13
26 25 12 11 14
27 26 13 11 14
28 30 17 19 20
29 31 17 19 21
30 32 17 19 22
31 34 20 19 21
32 35 20 19 22
33 36 21 19 22
34 27 15 17 18
35 28 15 17 19
36 33 18 17 19

Dihedrals

1 6 2 7 5 6
2 13 5 7 9 10
3 14 5 7 9 11
4 15 5 7 9 11
5 16 5 7 9 11
6 17 5 7 9 15
7 18 5 7 9 15
8 30 8 7 9 10
9 31 8 7 9 11
10 32 8 7 9 15
11 4 2 5 7 8
12 5 2 5 7 9
13 20 6 5 7 8
14 21 6 5 7 8
15 22 6 5 7 9
16 1 1 2 5 6
17 2 1 2 5 6
18 3 1 2 5 7
19 7 3 2 5 6
20 8 3 2 5 6
21 9 3 2 5 7
22 10 4 2 5 6
23 11 4 2 5 6
24 12 4 2 5 7
25 19 5 9 7 8
26 23 7 9 11 12
27 24 7 9 11 13
28 25 7 9 11 14
29 26 7 9 15 16
30 27 7 9 15 17
31 28 7 9 15 17
32 29 7 9 15 17
33 36 10 9 11 12
34 37 10 9 11 13
35 38 10 9 11 14
36 39 10 9 15 16
37 40 10 9 15 16
38 41 10 9 15 17
39 42 11 9 15 16
40 43 11 9 15 17
41 44 11 9 15 17
42 45 11 9 15 17
43 46 15 9 11 12
44 47 15 9 11 13
45 48 15 9 11 14
46 33 9 15 17 18
47 34 9 15 17 19
48 53 16 15 17 18
49 54 16 15 17 18
50 55 16 15 17 19
51 52 15 19 17 18
52 35 9 17 15 16
53 49 15 17 19 20
54 50 15 17 19 21
55 51 15 17 19 22
56 56 18 17 19 20
57 57 18 17 19 21
58 58 18 17 19 22
