LAMMPS data file via write_data, version 23 Jun 2022, timestep = 1000000

22 atoms
7 atom types
21 bonds
21 bond types
36 angles
36 angle types
58 dihedrals
58 dihedral types

-25 25 xlo xhi
-25 25 ylo yhi
-25 25 zlo zhi

Masses

1 1.008
2 12.01
3 12.01
4 16
5 14.01
6 1.008
7 1.008

Atoms # full

3 1 1 0.1123 1.246751320359226 -0.25512340851425086 -2.6730592577759467 0 0 0
7 2 5 -0.4157 2.9443369642972326 0.7345994131257226 -4.258503376147528 0 0 0
1 1 1 0.1123 -0.017043156866321352 0.43796497672397455 -3.8652534431345127 0 0 0
5 1 3 0.5972 1.8092834069805304 1.3579091098141294 -3.8384093673148008 0 0 0
2 1 2 -0.3662 0.8048218366610002 0.5888255085298523 -3.0931057362677983 0 0 0
4 1 1 0.1123 0.4355500664460815 1.2310870007377495 -2.3397847048704388 0 0 0
8 2 6 0.2719 3.140500100688086 -0.25820561228593003 -4.052367896607948 0 0 0
10 2 7 0.0823 3.6897576714626568 2.3761378430522324 -5.487140548530151 0 0 0
13 2 1 0.0603 5.32250048880403 0.9580392241900999 -3.0821209307352504 0 0 0
9 2 2 0.0337 4.0649700714589985 1.4659598684329944 -4.892535323077995 0 0 0
6 1 4 -0.5679 1.7131199600999052 2.58327907021948 -4.001552847421646 0 0 0
15 2 3 0.5973000000000001 4.6383586951137925 0.5479560198011415 -6.022947052928713 0 0 0
14 2 1 0.0603 6.009885752736214 2.231565327129579 -4.248056144639656 0 0 0
16 2 4 -0.5679 4.6820562839313284 -0.6553445215373799 -5.7627559868643345 0 0 0
21 3 7 0.09760000000000001 4.656213358487816 0.03157493825844085 -8.951900750046821 0 0 0
12 2 1 0.0603 4.7564410136098845 2.6045675234018844 -3.1741532230855802 0 0 0
20 3 7 0.09760000000000001 6.139713241177249 -0.3789826088472043 -8.129742680643114 0 0 0
11 2 2 -0.1825 5.152850091739972 1.8145706921050906 -3.7849027463378344 0 0 0
19 3 2 -0.149 5.48665365069006 0.4669906385557467 -8.394613880902615 0 0 0
18 3 6 0.2719 4.854203658379153 2.114657619890953 -7.314436909122366 0 0 0
17 3 5 -0.4157 4.957256561799462 1.154652369124174 -7.217672439745926 0 0 0
22 3 7 0.09760000000000001 6.071447998617509 1.0378834519011586 -9.106493637263023 0 0 0

Velocities

3 0.016991189739308875 0.0012417116651193775 0.0015455200471628785
7 0.0047977161657389395 -0.004688381797386461 0.004671857421561491
1 0.005047396961110284 -0.019034989375669487 -0.007559263317391514
5 0.003978579444567134 0.004204699107729297 0.00456716595586484
2 -0.0007874016939638054 -0.0028691185086154704 0.004818095550185552
4 0.02207445351103774 0.009487240537133191 0.015763423013132875
8 -0.008667148114015564 -0.0037428918445701607 -0.0013388602119103646
10 0.007223188884304145 -0.010298191639109014 0.01889151320590323
13 0.0011109330402491653 0.006239766068906639 0.0002783183878203281
9 0.00027676094683420265 -0.0057180683206310345 0.005249983473644447
6 0.001296954145501639 0.0045027863311476735 -0.002747229405522491
15 0.003425854250084485 -0.0015997877598764175 0.006355512107475654
14 0.008455492782002815 0.0111614870874285 -0.021944404000473094
16 0.0004029384377676234 -0.000770578072454358 -0.002360313159198283
21 0.016835639837034053 -0.004770244363407589 -0.01510093565995301
12 -0.02181468322348549 0.008428278811072491 0.026889189485302577
20 -0.016122949439992245 0.00989234478076845 -0.01867218934209141
11 -0.0015823432691691426 0.00575123630945553 0.0026698945021007506
19 -0.003679510817088987 0.001188212807588709 0.004247731593639044
18 -0.03302882924652459 -0.015094047090298263 -0.004405796942702736
17 -0.001864144225612285 0.002957381283122103 0.0018849833603133517
22 -0.008606993099034298 0.030097602964975247 0.00760451525701967

Bonds

1 7 7 8
2 8 7 9
3 1 1 2
4 5 5 6
5 6 5 7
6 2 2 3
7 3 2 4
8 4 2 5
9 9 9 10
10 10 9 11
11 11 9 15
12 15 15 16
13 16 15 17
14 12 11 12
15 13 11 13
16 14 11 14
17 19 19 20
18 20 19 21
19 21 19 22
20 17 17 18
21 18 17 19

Angles

1 9 5 7 8
2 10 5 7 9
3 15 8 7 9
4 4 2 5 6
5 5 2 5 7
6 11 6 5 7
7 1 1 2 3
8 2 1 2 4
9 3 1 2 5
10 6 3 2 4
11 7 3 2 5
12 8 4 2 5
13 12 7 9 10
14 13 7 9 11
15 14 7 9 15
16 21 10 9 11
17 22 10 9 15
18 23 11 9 15
19 19 9 15 16
20 20 9 15 17
21 29 16 15 17
22 16 9 11 12
23 17 9 11 13
24 18 9 11 14
25 24 12 11 13
26 25 12 11 14
27 26 13 11 14
28 30 17 19 20
29 31 17 19 21
30 32 17 19 22
31 34 20 19 21
32 35 20 19 22
33 36 21 19 22
34 27 15 17 18
35 28 15 17 19
36 33 18 17 19

Dihedrals

1 6 2 7 5 6
2 13 5 7 9 10
3 14 5 7 9 11
4 15 5 7 9 11
5 16 5 7 9 11
6 17 5 7 9 15
7 18 5 7 9 15
8 30 8 7 9 10
9 31 8 7 9 11
10 32 8 7 9 15
11 4 2 5 7 8
12 5 2 5 7 9
13 20 6 5 7 8
14 21 6 5 7 8
15 22 6 5 7 9
16 1 1 2 5 6
17 2 1 2 5 6
18 3 1 2 5 7
19 7 3 2 5 6
20 8 3 2 5 6
21 9 3 2 5 7
22 10 4 2 5 6
23 11 4 2 5 6
24 12 4 2 5 7
25 19 5 9 7 8
26 23 7 9 11 12
27 24 7 9 11 13
28 25 7 9 11 14
29 26 7 9 15 16
30 27 7 9 15 17
31 28 7 9 15 17
32 29 7 9 15 17
33 36 10 9 11 12
34 37 10 9 11 13
35 38 10 9 11 14
36 39 10 9 15 16
37 40 10 9 15 16
38 41 10 9 15 17
39 42 11 9 15 16
40 43 11 9 15 17
41 44 11 9 15 17
42 45 11 9 15 17
43 46 15 9 11 12
44 47 15 9 11 13
45 48 15 9 11 14
46 33 9 15 17 18
47 34 9 15 17 19
48 53 16 15 17 18
49 54 16 15 17 18
50 55 16 15 17 19
51 52 15 19 17 18
52 35 9 17 15 16
53 49 15 17 19 20
54 50 15 17 19 21
55 51 15 17 19 22
56 56 18 17 19 20
57 57 18 17 19 21
58 58 18 17 19 22
