LAMMPS data file via write_data, version 23 Jun 2022, timestep = 1000000

22 atoms
7 atom types
21 bonds
21 bond types
36 angles
36 angle types
58 dihedrals
58 dihedral types

-25 25 xlo xhi
-25 25 ylo yhi
-25 25 zlo zhi

Masses

1 1.008
2 12.01
3 12.01
4 16
5 14.01
6 1.008
7 1.008

Atoms # full

3 1 1 0.1123 1.3221236779632701 -0.3234621177372448 -2.8212214464944205 0 0 0
7 2 5 -0.4157 2.9749520937659817 0.786325652350737 -4.272978901918135 0 0 0
1 1 1 0.1123 -0.05576048175445018 0.283161098989941 -3.701407182152375 0 0 0
5 1 3 0.5972 1.8729623536117936 1.4339019718661454 -3.87583767906245 0 0 0
2 1 2 -0.3662 0.845312052167485 0.5862609598166917 -3.088207380797771 0 0 0
4 1 1 0.1123 0.5340426614910974 1.1846667429554636 -2.2416920140871235 0 0 0
8 2 6 0.2719 3.066780366355811 -0.27048661426005927 -4.1750553926572325 0 0 0
10 2 7 0.0823 3.764056707514453 2.492496254985102 -5.352506348482041 0 0 0
13 2 1 0.0603 5.230153239380315 1.1334549541208807 -3.2007393368552153 0 0 0
9 2 2 0.0337 4.059427391575497 1.5015248310615692 -4.872700109617385 0 0 0
6 1 4 -0.5679 1.64507741739196 2.649239930680598 -4.017317637925877 0 0 0
15 2 3 0.5973000000000001 4.609835871498605 0.6132932753782212 -5.984817299376163 0 0 0
14 2 1 0.0603 6.012871000186744 2.3147171154103034 -4.18256039044456 0 0 0
16 2 4 -0.5679 4.649368009649294 -0.6174399684299691 -5.796411369111061 0 0 0
21 3 7 0.09760000000000001 4.569954887158764 0.05046295396602645 -8.89665389900352 0 0 0
12 2 1 0.0603 4.560804368479052 2.6911017595121485 -3.252435403611816 0 0 0
20 3 7 0.09760000000000001 6.239028529905535 -0.18638286343103277 -8.007126921053512 0 0 0
11 2 2 -0.1825 5.059153943401005 1.941465049394314 -3.7885620693548687 0 0 0
19 3 2 -0.149 5.4766642411858575 0.47524736512466365 -8.343355934545986 0 0 0
18 3 6 0.2719 4.732135135427941 2.1059994708490026 -7.248896060851911 0 0 0
17 3 5 -0.4157 4.944612746124403 1.1686215674434328 -7.146829315349657 0 0 0
22 3 7 0.09760000000000001 5.933888797435773 1.1214384575525713 -9.064985390056268 0 0 0

Velocities

3 -0.01331371202372816 -0.009952014663978713 -0.028484036777354192
7 -0.0038800362133570017 0.007725806403071407 0.0053178375666193475
1 0.013227749907622141 0.010979445624031043 -0.001381150015250459
5 0.0012672480276750646 -0.0009938369277540035 -0.004240709949262922
2 0.001670257999054123 -0.005232170620016076 -0.00015346172102543925
4 0.0017686173429333997 -0.0008226435567504722 -0.009379935599567795
8 0.01315671739587853 -0.00582443269221152 0.025162062678550045
10 -0.006117194744051147 0.0011091918731130717 0.013694763667236643
13 -0.0015779439719989623 0.021509649040258202 -0.008689871664158955
9 -0.006768871589606368 -0.00015855447072487183 -0.001120188955869515
6 -0.004410559492681208 -6.972198444478225e-05 -0.005562159394145774
15 -0.0033022105151434586 0.0005746440464698923 -0.0027972623796872387
14 -0.004710925042874573 0.0015810179360396873 -0.0015621543779280717
16 0.005720840036811745 0.004762064003511964 0.001532953532811393
21 -0.013865092538066887 -0.0036287227082103454 -0.012128179015294876
12 -0.025389842091243144 -0.009209824916657398 -0.0017255027042283482
20 0.018387655661886392 -0.008522516854913932 0.009679792617704524
11 -0.001554698005721673 -0.002785426465557411 0.004886750023611786
19 0.0006032414364519165 0.007291843522352965 -0.003367113132425527
18 0.01245943665510405 -0.013697741548641547 0.018365437246497588
17 0.0016637012916677683 0.00202940456003989 -0.007497828937721852
22 -0.007021537060531127 0.010985354755016144 0.009103802772219982

Bonds

1 7 7 8
2 8 7 9
3 1 1 2
4 5 5 6
5 6 5 7
6 2 2 3
7 3 2 4
8 4 2 5
9 9 9 10
10 10 9 11
11 11 9 15
12 15 15 16
13 16 15 17
14 12 11 12
15 13 11 13
16 14 11 14
17 19 19 20
18 20 19 21
19 21 19 22
20 17 17 18
21 18 17 19

Angles

1 9 5 7 8
2 10 5 7 9
3 15 8 7 9
4 4 2 5 6
5 5 2 5 7
6 11 6 5 7
7 1 1 2 3
8 2 1 2 4
9 3 1 2 5
10 6 3 2 4
11 7 3 2 5
12 8 4 2 5
13 12 7 9 10
14 13 7 9 11
15 14 7 9 15
16 21 10 9 11
17 22 10 9 15
18 23 11 9 15
19 19 9 15 16
20 20 9 15 17
21 29 16 15 17
22 16 9 11 12
23 17 9 11 13
24 18 9 11 14
25 24 12 11 13
26 25 12 11 14
27 26 13 11 14
28 30 17 19 20
29 31 17 19 21
30 32 17 19 22
31 34 20 19 21
32 35 20 19 22
33 36 21 19 22
34 27 15 17 18
35 28 15 17 19
36 33 18 17 19

Dihedrals

1 6 2 7 5 6
2 13 5 7 9 10
3 14 5 7 9 11
4 15 5 7 9 11
5 16 5 7 9 11
6 17 5 7 9 15
7 18 5 7 9 15
8 30 8 7 9 10
9 31 8 7 9 11
10 32 8 7 9 15
11 4 2 5 7 8
12 5 2 5 7 9
13 20 6 5 7 8
14 21 6 5 7 8
15 22 6 5 7 9
16 1 1 2 5 6
17 2 1 2 5 6
18 3 1 2 5 7
19 7 3 2 5 6
20 8 3 2 5 6
21 9 3 2 5 7
22 10 4 2 5 6
23 11 4 2 5 6
24 12 4 2 5 7
25 19 5 9 7 8
26 23 7 9 11 12
27 24 7 9 11 13
28 25 7 9 11 14
29 26 7 9 15 16
30 27 7 9 15 17
31 28 7 9 15 17
32 29 7 9 15 17
33 36 10 9 11 12
34 37 10 9 11 13
35 38 10 9 11 14
36 39 10 9 15 16
37 40 10 9 15 16
38 41 10 9 15 17
39 42 11 9 15 16
40 43 11 9 15 17
41 44 11 9 15 17
42 45 11 9 15 17
43 46 15 9 11 12
44 47 15 9 11 13
45 48 15 9 11 14
46 33 9 15 17 18
47 34 9 15 17 19
48 53 16 15 17 18
49 54 16 15 17 18
50 55 16 15 17 19
51 52 15 19 17 18
52 35 9 17 15 16
53 49 15 17 19 20
54 50 15 17 19 21
55 51 15 17 19 22
56 56 18 17 19 20
57 57 18 17 19 21
58 58 18 17 19 22
