LAMMPS data file via write_data, version 23 Jun 2022, timestep = 1000000

22 atoms
7 atom types
21 bonds
21 bond types
36 angles
36 angle types
58 dihedrals
58 dihedral types

-25 25 xlo xhi
-25 25 ylo yhi
-25 25 zlo zhi

Masses

1 1.008
2 12.01
3 12.01
4 16
5 14.01
6 1.008
7 1.008

Atoms # full

3 1 1 0.1123 1.3082126216886314 -0.3633853033788745 -2.8331606814967762 0 0 0
7 2 5 -0.4157 2.9137380476906367 0.756865788945149 -4.2531277773401 0 0 0
1 1 1 0.1123 0.052927539819144984 0.24631270544115838 -3.8080429073399906 0 0 0
5 1 3 0.5972 1.8230288208194296 1.3643751821120613 -3.8354697466788124 0 0 0
2 1 2 -0.3662 0.8289395079351477 0.5549502234943504 -3.0848702438464084 0 0 0
4 1 1 0.1123 0.48564255795363864 1.206248804995803 -2.2540624555460416 0 0 0
8 2 6 0.2719 2.9815353564035276 -0.2784342858415222 -4.2336991450921655 0 0 0
10 2 7 0.0823 3.85711864927094 2.3394742157633015 -5.28201859477614 0 0 0
13 2 1 0.0603 5.258891928239761 1.0772726680936355 -3.202564830640571 0 0 0
9 2 2 0.0337 4.10879958161266 1.4871054628374698 -4.853009209023315 0 0 0
6 1 4 -0.5679 1.6929056317557816 2.5760824755599256 -4.033663029143578 0 0 0
15 2 3 0.5973000000000001 4.684121557572593 0.5966974701468817 -5.96653890185128 0 0 0
14 2 1 0.0603 6.105286928837932 2.199632856508676 -4.251608446341222 0 0 0
16 2 4 -0.5679 4.641246777155232 -0.6537033687277687 -5.767395024756002 0 0 0
21 3 7 0.09760000000000001 4.626203255157718 -0.0006167646802467076 -8.9290216920052 0 0 0
12 2 1 0.0603 4.532495099071139 2.7061454530827342 -3.30223550630368 0 0 0
20 3 7 0.09760000000000001 6.24604715154001 -0.3748629404511378 -7.860184225058377 0 0 0
11 2 2 -0.1825 5.103926888367872 1.9308763828884936 -3.7835527089969894 0 0 0
19 3 2 -0.149 5.480347650864765 0.4686263276396982 -8.35833851235603 0 0 0
18 3 6 0.2719 4.760709847029748 2.175091497773246 -7.221384413728022 0 0 0
17 3 5 -0.4157 4.956549538008494 1.1484836101471814 -7.183099027677469 0 0 0
22 3 7 0.09760000000000001 6.056265678343217 1.0832922154167806 -8.955751090676683 0 0 0

Velocities

3 -0.00918362313589642 0.0017921799504592205 -0.033297116245889054
7 0.004988956212186646 0.00012612929350383462 0.0004255357780827676
1 -0.020726961882286614 -0.0016332505349857841 0.011996654348451607
5 0.001058866209906844 0.0032937331127670766 0.00011684112092782914
2 -0.0058010289826733435 -0.004360535725651664 0.0004827856432310898
4 -0.004172722508223837 0.0319405806725543 0.008593855649887145
8 0.019361646773863355 0.01618647175451811 -0.023856929683104558
10 -0.0256569496052104 0.01061521230563946 0.002306201242587782
13 0.015721110995279584 0.01789683424523697 -0.017017458648095937
9 -0.004780581014086403 -4.191428073316956e-05 0.0011287312421235144
6 0.006882310348962661 0.00741905831619148 -0.00833972659821913
15 -0.0014357495180843697 -0.005468880769484406 -0.0047860866996831935
14 0.010667787686159494 0.004788046187399953 0.009983186806844414
16 0.006424140151763033 0.0017569603113510393 0.0018491242170823943
21 -0.007712770450218783 -0.0021781321321641105 0.017786514152289434
12 -0.027524510579398836 -0.0014760676687066692 0.003932350439740686
20 -0.013985002001708064 -0.0013134950179052281 -0.008052684130083376
11 0.003971610280859458 0.004692584787495791 -0.008374273974626976
19 -0.0001649147696813133 0.0034060108004332684 0.0013432695078315978
18 0.019820021321280967 0.017093663739658524 0.009166951503792549
17 -0.0009141438468491297 -0.0052315697633612546 8.266037204431693e-05
22 -0.0168717867199204 0.004311657997764596 -0.0065907820567591546

Bonds

1 7 7 8
2 8 7 9
3 1 1 2
4 5 5 6
5 6 5 7
6 2 2 3
7 3 2 4
8 4 2 5
9 9 9 10
10 10 9 11
11 11 9 15
12 15 15 16
13 16 15 17
14 12 11 12
15 13 11 13
16 14 11 14
17 19 19 20
18 20 19 21
19 21 19 22
20 17 17 18
21 18 17 19

Angles

1 9 5 7 8
2 10 5 7 9
3 15 8 7 9
4 4 2 5 6
5 5 2 5 7
6 11 6 5 7
7 1 1 2 3
8 2 1 2 4
9 3 1 2 5
10 6 3 2 4
11 7 3 2 5
12 8 4 2 5
13 12 7 9 10
14 13 7 9 11
15 14 7 9 15
16 21 10 9 11
17 22 10 9 15
18 23 11 9 15
19 19 9 15 16
20 20 9 15 17
21 29 16 15 17
22 16 9 11 12
23 17 9 11 13
24 18 9 11 14
25 24 12 11 13
26 25 12 11 14
27 26 13 11 14
28 30 17 19 20
29 31 17 19 21
30 32 17 19 22
31 34 20 19 21
32 35 20 19 22
33 36 21 19 22
34 27 15 17 18
35 28 15 17 19
36 33 18 17 19

Dihedrals

1 6 2 7 5 6
2 13 5 7 9 10
3 14 5 7 9 11
4 15 5 7 9 11
5 16 5 7 9 11
6 17 5 7 9 15
7 18 5 7 9 15
8 30 8 7 9 10
9 31 8 7 9 11
10 32 8 7 9 15
11 4 2 5 7 8
12 5 2 5 7 9
13 20 6 5 7 8
14 21 6 5 7 8
15 22 6 5 7 9
16 1 1 2 5 6
17 2 1 2 5 6
18 3 1 2 5 7
19 7 3 2 5 6
20 8 3 2 5 6
21 9 3 2 5 7
22 10 4 2 5 6
23 11 4 2 5 6
24 12 4 2 5 7
25 19 5 9 7 8
26 23 7 9 11 12
27 24 7 9 11 13
28 25 7 9 11 14
29 26 7 9 15 16
30 27 7 9 15 17
31 28 7 9 15 17
32 29 7 9 15 17
33 36 10 9 11 12
34 37 10 9 11 13
35 38 10 9 11 14
36 39 10 9 15 16
37 40 10 9 15 16
38 41 10 9 15 17
39 42 11 9 15 16
40 43 11 9 15 17
41 44 11 9 15 17
42 45 11 9 15 17
43 46 15 9 11 12
44 47 15 9 11 13
45 48 15 9 11 14
46 33 9 15 17 18
47 34 9 15 17 19
48 53 16 15 17 18
49 54 16 15 17 18
50 55 16 15 17 19
51 52 15 19 17 18
52 35 9 17 15 16
53 49 15 17 19 20
54 50 15 17 19 21
55 51 15 17 19 22
56 56 18 17 19 20
57 57 18 17 19 21
58 58 18 17 19 22
