LAMMPS data file via write_data, version 23 Jun 2022, timestep = 1000000

22 atoms
7 atom types
21 bonds
21 bond types
36 angles
36 angle types
58 dihedrals
58 dihedral types

-25 25 xlo xhi
-25 25 ylo yhi
-25 25 zlo zhi

Masses

1 1.008
2 12.01
3 12.01
4 16
5 14.01
6 1.008
7 1.008

Atoms # full

3 1 1 0.1123 1.3516295333969783 -0.3502119848842278 -2.5583410947366265 0 0 0
7 2 5 -0.4157 2.9458730666680917 0.8183750651875645 -4.1657722521941185 0 0 0
1 1 1 0.1123 0.0615583044150394 0.1934315774386089 -3.742796203799947 0 0 0
5 1 3 0.5972 1.8196922154846136 1.4023181754183014 -3.714051329846261 0 0 0
2 1 2 -0.3662 0.8175893816683819 0.5247807337090161 -3.0026728525588298 0 0 0
4 1 1 0.1123 0.3615029209957553 1.113829182585293 -2.1812769611588156 0 0 0
8 2 6 0.2719 3.029408627721976 -0.19380422432953603 -4.062269495216511 0 0 0
10 2 7 0.0823 3.641961573931175 2.4800185142861118 -5.3610739204783515 0 0 0
13 2 1 0.0603 5.434418744600121 1.0121788638542717 -3.3089104032058803 0 0 0
9 2 2 0.0337 4.048081846478434 1.499544838381951 -4.902805452542258 0 0 0
6 1 4 -0.5679 1.6263299426710387 2.5897310685075823 -3.94530441641296 0 0 0
15 2 3 0.5973000000000001 4.536886100215915 0.5447501976589363 -6.0179491360371875 0 0 0
14 2 1 0.0603 6.065453258855392 2.33631465944384 -4.319483730186124 0 0 0
16 2 4 -0.5679 4.6442133107982055 -0.6800766255615042 -5.8163508740912215 0 0 0
21 3 7 0.09760000000000001 4.670601948575065 -0.07434172222043053 -8.752788356941217 0 0 0
12 2 1 0.0603 4.580121662014488 2.4727276093121757 -3.176956317388102 0 0 0
20 3 7 0.09760000000000001 6.385666802480791 0.011756901621043477 -8.045280239902574 0 0 0
11 2 2 -0.1825 5.159591103439581 1.8864459902033717 -3.866277300685872 0 0 0
19 3 2 -0.149 5.422172051038693 0.5886279645074375 -8.313036239256036 0 0 0
18 3 6 0.2719 4.683096293914146 2.058142157767638 -7.190449475991713 0 0 0
17 3 5 -0.4157 4.9728656978857995 1.181803041981132 -7.139136799633934 0 0 0
22 3 7 0.09760000000000001 5.688550264480854 1.2681322387017306 -9.172875077128197 0 0 0

Velocities

3 -0.006460927903822715 -0.0019152632260448811 -0.0166788725278024
7 -0.003910588313650431 -0.006080361292422416 -0.003264831925832038
1 0.012020927531309948 0.004655048620237803 -0.01044767273881654
5 0.0010838183510852872 -0.006295682687088393 0.0012047521028589496
2 -0.001534670733194484 0.00032068566633832986 -0.0037258993460592593
4 -0.003967641205261098 -0.015584889961571069 -0.008132594451906432
8 -0.0006760400268326159 -0.014595234341026333 -0.0077763677171810725
10 0.004272782230182439 -0.014566812509452808 -0.011377111931885528
13 0.00412736277569674 -0.02396012351947226 -0.015666221543002352
9 -0.0021155752330614353 -0.008177788317475405 0.003276782497056484
6 -0.010152490906206041 0.004504047567207138 -0.0034447895972208827
15 -0.004908350323807346 0.002916414713965345 -0.007158171884406681
14 -0.009928862669621695 -0.007917487209451313 0.0008771081023597883
16 0.00026107853604232856 -0.00023183847874882807 -0.0010034860380642265
21 0.007314817888458619 0.003687302060757614 0.003701786033035238
12 -0.0208178814350368 0.0009690537905955345 -0.0013010147101292168
20 0.007875980710274753 0.001522807908792606 -0.006802926747360266
11 -0.004137964652138748 1.8808506860362262e-05 -0.0017521969373111468
19 0.001493980678239863 0.0008464295643477071 0.003654312474733048
18 -0.01921329965946801 -0.0035036537235612984 -0.00739852803094843
17 0.003918905561278924 0.008797598902056553 0.006381528629452123
22 0.009025827001454234 0.026109708727634302 -7.959136488949834e-05

Bonds

1 7 7 8
2 8 7 9
3 1 1 2
4 5 5 6
5 6 5 7
6 2 2 3
7 3 2 4
8 4 2 5
9 9 9 10
10 10 9 11
11 11 9 15
12 15 15 16
13 16 15 17
14 12 11 12
15 13 11 13
16 14 11 14
17 19 19 20
18 20 19 21
19 21 19 22
20 17 17 18
21 18 17 19

Angles

1 9 5 7 8
2 10 5 7 9
3 15 8 7 9
4 4 2 5 6
5 5 2 5 7
6 11 6 5 7
7 1 1 2 3
8 2 1 2 4
9 3 1 2 5
10 6 3 2 4
11 7 3 2 5
12 8 4 2 5
13 12 7 9 10
14 13 7 9 11
15 14 7 9 15
16 21 10 9 11
17 22 10 9 15
18 23 11 9 15
19 19 9 15 16
20 20 9 15 17
21 29 16 15 17
22 16 9 11 12
23 17 9 11 13
24 18 9 11 14
25 24 12 11 13
26 25 12 11 14
27 26 13 11 14
28 30 17 19 20
29 31 17 19 21
30 32 17 19 22
31 34 20 19 21
32 35 20 19 22
33 36 21 19 22
34 27 15 17 18
35 28 15 17 19
36 33 18 17 19

Dihedrals

1 6 2 7 5 6
2 13 5 7 9 10
3 14 5 7 9 11
4 15 5 7 9 11
5 16 5 7 9 11
6 17 5 7 9 15
7 18 5 7 9 15
8 30 8 7 9 10
9 31 8 7 9 11
10 32 8 7 9 15
11 4 2 5 7 8
12 5 2 5 7 9
13 20 6 5 7 8
14 21 6 5 7 8
15 22 6 5 7 9
16 1 1 2 5 6
17 2 1 2 5 6
18 3 1 2 5 7
19 7 3 2 5 6
20 8 3 2 5 6
21 9 3 2 5 7
22 10 4 2 5 6
23 11 4 2 5 6
24 12 4 2 5 7
25 19 5 9 7 8
26 23 7 9 11 12
27 24 7 9 11 13
28 25 7 9 11 14
29 26 7 9 15 16
30 27 7 9 15 17
31 28 7 9 15 17
32 29 7 9 15 17
33 36 10 9 11 12
34 37 10 9 11 13
35 38 10 9 11 14
36 39 10 9 15 16
37 40 10 9 15 16
38 41 10 9 15 17
39 42 11 9 15 16
40 43 11 9 15 17
41 44 11 9 15 17
42 45 11 9 15 17
43 46 15 9 11 12
44 47 15 9 11 13
45 48 15 9 11 14
46 33 9 15 17 18
47 34 9 15 17 19
48 53 16 15 17 18
49 54 16 15 17 18
50 55 16 15 17 19
51 52 15 19 17 18
52 35 9 17 15 16
53 49 15 17 19 20
54 50 15 17 19 21
55 51 15 17 19 22
56 56 18 17 19 20
57 57 18 17 19 21
58 58 18 17 19 22
