LAMMPS data file via write_data, version 23 Jun 2022, timestep = 1000000

22 atoms
7 atom types
21 bonds
21 bond types
36 angles
36 angle types
58 dihedrals
58 dihedral types

-25 25 xlo xhi
-25 25 ylo yhi
-25 25 zlo zhi

Masses

1 1.008
2 12.01
3 12.01
4 16
5 14.01
6 1.008
7 1.008

Atoms # full

3 1 1 0.1123 1.3549806023680018 -0.12665704229270836 -2.3670462846163702 0 0 0
7 2 5 -0.4157 2.9523009364671102 0.8484758844506868 -4.187180788321039 0 0 0
1 1 1 0.1123 0.24753659544608084 0.07553160735016441 -3.768977217924568 0 0 0
5 1 3 0.5972 1.839166295215578 1.4316650171588465 -3.745562305977088 0 0 0
2 1 2 -0.3662 0.8592446256240954 0.5912280962026437 -3.019038586556354 0 0 0
4 1 1 0.1123 0.08992326410193441 1.196512867158006 -2.376471948175641 0 0 0
8 2 6 0.2719 3.0299487141291075 -0.26228491961475386 -4.1189685369567695 0 0 0
10 2 7 0.0823 3.7443979217669647 2.5727629834218475 -5.214937789629439 0 0 0
13 2 1 0.0603 5.7371564885517214 0.9949505081124881 -3.4502497805806875 0 0 0
9 2 2 0.0337 4.0199434030415775 1.5916063056540062 -4.856214395608048 0 0 0
6 1 4 -0.5679 1.6613313979785826 2.639492626247653 -3.931770206819647 0 0 0
15 2 3 0.5973000000000001 4.617876461280365 0.6987935396826276 -5.9461534729047 0 0 0
14 2 1 0.0603 5.538326428733665 2.8171426674395748 -4.061853907162662 0 0 0
16 2 4 -0.5679 4.727806307220926 -0.547259271338523 -5.843119988621467 0 0 0
21 3 7 0.09760000000000001 4.390237306525488 0.681768123057352 -8.976927557877564 0 0 0
12 2 1 0.0603 4.480571442715024 2.1117298287017743 -2.8388711932286266 0 0 0
20 3 7 0.09760000000000001 5.778221258232379 -0.32563067306615734 -8.24017328573582 0 0 0
11 2 2 -0.1825 5.05348391617904 1.862155136958862 -3.813477303236633 0 0 0
19 3 2 -0.149 5.332736919940423 0.6847705310261454 -8.33227876209898 0 0 0
18 3 6 0.2719 4.94309835859885 2.461838566073689 -7.123971692039522 0 0 0
17 3 5 -0.4157 5.082322508325661 1.3447630565197262 -7.0569494641591355 0 0 0
22 3 7 0.09760000000000001 6.027662254104126 1.35432262454061 -8.886058505055491 0 0 0

Velocities

3 -0.025928487966775146 0.007836864576315371 0.01031504445362293
7 -0.001968068211349997 0.006391449228288455 0.0032301223758283005
1 -0.019234455106424932 0.03030290071226621 -0.008901178589505317
5 0.0043574125143378845 -0.00702328293695022 0.0023842766255854756
2 -0.002707617568751047 0.0023772396237194196 0.0045033521638796516
4 0.033953962402975574 -0.01894656385780348 0.0021279615722861085
8 -0.011454043753233115 -0.016107466277281983 0.023225775377453118
10 0.0023253559438968993 1.0645627803936757e-05 -0.01350210654566788
13 0.00921173562958608 0.013111528992068737 -0.004985895268398439
9 0.008636614233361062 -0.005772392196013183 -0.0028697907687869474
6 -0.0014270206343497092 0.001206886240160663 0.0028568598356730596
15 0.006351843299815813 -0.00024107608246481927 -0.0033204078065722942
14 -0.022433068045049874 0.01034166273399998 0.012134965082941835
16 0.004338103883889699 1.747308095881978e-05 -0.0005149994275363161
21 -0.010824884798126473 -0.011702932186287913 0.004720418823573521
12 -0.004827134796529929 0.0006355287274040614 0.014713902512028216
20 0.013784933269725077 0.005080495108170317 0.004932773323811538
11 0.0035895222538126306 -0.002364263768098553 0.00658852341649901
19 -0.003966787080150182 -0.0034709942279273903 0.0015901466471141847
18 -0.000735672641820645 -0.009985589759062899 -0.030291592455927725
17 1.9641157527072154e-05 0.005249775088230632 0.0022076392115606973
22 -0.006771274310369137 0.008973588844584244 0.012270553630078179

Bonds

1 7 7 8
2 8 7 9
3 1 1 2
4 5 5 6
5 6 5 7
6 2 2 3
7 3 2 4
8 4 2 5
9 9 9 10
10 10 9 11
11 11 9 15
12 15 15 16
13 16 15 17
14 12 11 12
15 13 11 13
16 14 11 14
17 19 19 20
18 20 19 21
19 21 19 22
20 17 17 18
21 18 17 19

Angles

1 9 5 7 8
2 10 5 7 9
3 15 8 7 9
4 4 2 5 6
5 5 2 5 7
6 11 6 5 7
7 1 1 2 3
8 2 1 2 4
9 3 1 2 5
10 6 3 2 4
11 7 3 2 5
12 8 4 2 5
13 12 7 9 10
14 13 7 9 11
15 14 7 9 15
16 21 10 9 11
17 22 10 9 15
18 23 11 9 15
19 19 9 15 16
20 20 9 15 17
21 29 16 15 17
22 16 9 11 12
23 17 9 11 13
24 18 9 11 14
25 24 12 11 13
26 25 12 11 14
27 26 13 11 14
28 30 17 19 20
29 31 17 19 21
30 32 17 19 22
31 34 20 19 21
32 35 20 19 22
33 36 21 19 22
34 27 15 17 18
35 28 15 17 19
36 33 18 17 19

Dihedrals

1 6 2 7 5 6
2 13 5 7 9 10
3 14 5 7 9 11
4 15 5 7 9 11
5 16 5 7 9 11
6 17 5 7 9 15
7 18 5 7 9 15
8 30 8 7 9 10
9 31 8 7 9 11
10 32 8 7 9 15
11 4 2 5 7 8
12 5 2 5 7 9
13 20 6 5 7 8
14 21 6 5 7 8
15 22 6 5 7 9
16 1 1 2 5 6
17 2 1 2 5 6
18 3 1 2 5 7
19 7 3 2 5 6
20 8 3 2 5 6
21 9 3 2 5 7
22 10 4 2 5 6
23 11 4 2 5 6
24 12 4 2 5 7
25 19 5 9 7 8
26 23 7 9 11 12
27 24 7 9 11 13
28 25 7 9 11 14
29 26 7 9 15 16
30 27 7 9 15 17
31 28 7 9 15 17
32 29 7 9 15 17
33 36 10 9 11 12
34 37 10 9 11 13
35 38 10 9 11 14
36 39 10 9 15 16
37 40 10 9 15 16
38 41 10 9 15 17
39 42 11 9 15 16
40 43 11 9 15 17
41 44 11 9 15 17
42 45 11 9 15 17
43 46 15 9 11 12
44 47 15 9 11 13
45 48 15 9 11 14
46 33 9 15 17 18
47 34 9 15 17 19
48 53 16 15 17 18
49 54 16 15 17 18
50 55 16 15 17 19
51 52 15 19 17 18
52 35 9 17 15 16
53 49 15 17 19 20
54 50 15 17 19 21
55 51 15 17 19 22
56 56 18 17 19 20
57 57 18 17 19 21
58 58 18 17 19 22
