LAMMPS data file via write_data, version 23 Jun 2022, timestep = 1000000

22 atoms
7 atom types
21 bonds
21 bond types
36 angles
36 angle types
58 dihedrals
58 dihedral types

-25 25 xlo xhi
-25 25 ylo yhi
-25 25 zlo zhi

Masses

1 1.008
2 12.01
3 12.01
4 16
5 14.01
6 1.008
7 1.008

Atoms # full

3 1 1 0.1123 1.2536737920941223 -0.3426718872377721 -2.4244637651348957 0 0 0
7 2 5 -0.4157 2.957769022356449 0.8014108203520428 -4.115712834437722 0 0 0
1 1 1 0.1123 0.038718268079452625 0.28622798824185364 -3.644586249024264 0 0 0
5 1 3 0.5972 1.819581303679373 1.362622216801603 -3.7003276495519644 0 0 0
2 1 2 -0.3662 0.8676479363958082 0.5798239127244283 -2.949584577278283 0 0 0
4 1 1 0.1123 0.4254562982790372 1.1801457975745193 -2.2690468460662014 0 0 0
8 2 6 0.2719 3.0447205978232876 -0.2805684451787731 -3.916147970805841 0 0 0
10 2 7 0.0823 3.5842899666896906 2.3981032360050114 -5.383748491037282 0 0 0
13 2 1 0.0603 5.397292424802779 1.118815068346337 -3.257507107012332 0 0 0
9 2 2 0.0337 3.959110785223208 1.4704992786430227 -4.85124612514476 0 0 0
6 1 4 -0.5679 1.5392197546301554 2.5746319369740176 -3.9385878224631523 0 0 0
15 2 3 0.5973000000000001 4.492654063595903 0.5507793917325835 -5.984947939073996 0 0 0
14 2 1 0.0603 5.823466403526039 2.3362636846118408 -4.407152011591824 0 0 0
16 2 4 -0.5679 4.633968992956687 -0.6338873474152682 -5.783791960479905 0 0 0
21 3 7 0.09760000000000001 4.5804818239247265 -0.11604492411936264 -8.75818339639075 0 0 0
12 2 1 0.0603 4.699069426365334 2.6657867787142506 -3.1782253282445025 0 0 0
20 3 7 0.09760000000000001 6.27021547467769 -0.007786443754090891 -8.281308533211066 0 0 0
11 2 2 -0.1825 5.048077214002618 1.8999764007146154 -3.848416040659231 0 0 0
19 3 2 -0.149 5.305068211153448 0.6203480928588418 -8.3980633465247 0 0 0
18 3 6 0.2719 4.926820756951302 2.2336344579135057 -7.138605342836474 0 0 0
17 3 5 -0.4157 4.8322871040987065 1.2037647428427476 -7.134800829499122 0 0 0
22 3 7 0.09760000000000001 5.493907258566245 1.4400129741669756 -9.136155269384878 0 0 0

Velocities

3 -0.004445351803069491 -0.008163805837537005 -0.011643141181597405
7 0.002175306125622002 -0.0025234818408777374 0.005438516048752468
1 -0.009097270494575153 0.007367245012226499 0.014296546079121461
5 0.0030308512514060208 -0.0002968995238615958 -0.002510230105388272
2 -0.0016657922102514208 0.0003689483318573834 0.0007192772478551552
4 -0.0023178924574864834 -0.0075517766808530645 -0.0021790646520077565
8 0.016059160009407596 0.002444101405849186 -0.021612970123863675
10 0.0031778883720957316 0.00134669521607209 -0.022202040174112335
13 0.015597859143676146 -0.005683548990996931 0.0024759449293089136
9 -0.0073479829735916945 0.007924462051764933 -0.004969683350517555
6 0.004673955756528276 -0.00042628968596800185 0.0004672263982104382
15 0.003766030754029685 0.002163587600441918 -0.00447590311148709
14 0.007354058048879221 0.01358590429725714 -0.008739204600801421
16 0.003789744800617843 0.0026330473336587737 -0.0016046790142197512
21 0.0033291990381289667 0.010397648408846027 -0.007412961347360844
12 0.0029978703751316 0.0028208157078956284 0.019627977592170293
20 0.012805821936253297 -0.019017519327045145 -0.004838592170604329
11 0.0023911124487053107 -0.0004217588736338926 -0.0006448296880569973
19 0.00967733533534554 0.003054362460203252 -0.0031568028910439402
18 0.03981713791858372 0.010188233803410553 0.017302462000612254
17 0.0032223467063547287 0.00030945483632040835 0.0008762116337692272
22 -0.02594159410317327 -0.025624912720214665 0.004094695178634414

Bonds

1 7 7 8
2 8 7 9
3 1 1 2
4 5 5 6
5 6 5 7
6 2 2 3
7 3 2 4
8 4 2 5
9 9 9 10
10 10 9 11
11 11 9 15
12 15 15 16
13 16 15 17
14 12 11 12
15 13 11 13
16 14 11 14
17 19 19 20
18 20 19 21
19 21 19 22
20 17 17 18
21 18 17 19

Angles

1 9 5 7 8
2 10 5 7 9
3 15 8 7 9
4 4 2 5 6
5 5 2 5 7
6 11 6 5 7
7 1 1 2 3
8 2 1 2 4
9 3 1 2 5
10 6 3 2 4
11 7 3 2 5
12 8 4 2 5
13 12 7 9 10
14 13 7 9 11
15 14 7 9 15
16 21 10 9 11
17 22 10 9 15
18 23 11 9 15
19 19 9 15 16
20 20 9 15 17
21 29 16 15 17
22 16 9 11 12
23 17 9 11 13
24 18 9 11 14
25 24 12 11 13
26 25 12 11 14
27 26 13 11 14
28 30 17 19 20
29 31 17 19 21
30 32 17 19 22
31 34 20 19 21
32 35 20 19 22
33 36 21 19 22
34 27 15 17 18
35 28 15 17 19
36 33 18 17 19

Dihedrals

1 6 2 7 5 6
2 13 5 7 9 10
3 14 5 7 9 11
4 15 5 7 9 11
5 16 5 7 9 11
6 17 5 7 9 15
7 18 5 7 9 15
8 30 8 7 9 10
9 31 8 7 9 11
10 32 8 7 9 15
11 4 2 5 7 8
12 5 2 5 7 9
13 20 6 5 7 8
14 21 6 5 7 8
15 22 6 5 7 9
16 1 1 2 5 6
17 2 1 2 5 6
18 3 1 2 5 7
19 7 3 2 5 6
20 8 3 2 5 6
21 9 3 2 5 7
22 10 4 2 5 6
23 11 4 2 5 6
24 12 4 2 5 7
25 19 5 9 7 8
26 23 7 9 11 12
27 24 7 9 11 13
28 25 7 9 11 14
29 26 7 9 15 16
30 27 7 9 15 17
31 28 7 9 15 17
32 29 7 9 15 17
33 36 10 9 11 12
34 37 10 9 11 13
35 38 10 9 11 14
36 39 10 9 15 16
37 40 10 9 15 16
38 41 10 9 15 17
39 42 11 9 15 16
40 43 11 9 15 17
41 44 11 9 15 17
42 45 11 9 15 17
43 46 15 9 11 12
44 47 15 9 11 13
45 48 15 9 11 14
46 33 9 15 17 18
47 34 9 15 17 19
48 53 16 15 17 18
49 54 16 15 17 18
50 55 16 15 17 19
51 52 15 19 17 18
52 35 9 17 15 16
53 49 15 17 19 20
54 50 15 17 19 21
55 51 15 17 19 22
56 56 18 17 19 20
57 57 18 17 19 21
58 58 18 17 19 22
