LAMMPS data file via write_data, version 23 Jun 2022, timestep = 1000000

22 atoms
7 atom types
21 bonds
21 bond types
36 angles
36 angle types
58 dihedrals
58 dihedral types

-25 25 xlo xhi
-25 25 ylo yhi
-25 25 zlo zhi

Masses

1 1.008
2 12.01
3 12.01
4 16
5 14.01
6 1.008
7 1.008

Atoms # full

3 1 1 0.1123 1.409949362664418 -0.3193089310258495 -2.522241133691872 0 0 0
7 2 5 -0.4157 2.9149432360236567 0.9000877332144974 -4.121141611491319 0 0 0
1 1 1 0.1123 -0.05616629561157985 0.3202740531946584 -3.8258546707493233 0 0 0
5 1 3 0.5972 1.808826640591252 1.5116669879885847 -3.7272412394365295 0 0 0
2 1 2 -0.3662 0.7650682629950452 0.5430894179499377 -3.0622265278899716 0 0 0
4 1 1 0.1123 0.06994549411446245 1.0634033539213052 -2.34924372338714 0 0 0
8 2 6 0.2719 3.0162746987042883 -0.12369528186831759 -3.885509745566807 0 0 0
10 2 7 0.0823 3.542910803579759 2.448493546096886 -5.479498960217546 0 0 0
13 2 1 0.0603 5.659075885487471 1.0481606694195653 -3.5407985235070645 0 0 0
9 2 2 0.0337 4.007852398805205 1.5486879331813204 -4.856826441518636 0 0 0
6 1 4 -0.5679 1.5885275282599065 2.693323151045091 -4.078310686488732 0 0 0
15 2 3 0.5973000000000001 4.616275832798481 0.696027205461595 -5.98186312646718 0 0 0
14 2 1 0.0603 5.781820458975356 2.7163848063991147 -4.049727045973765 0 0 0
16 2 4 -0.5679 4.666519225139348 -0.4844049516377733 -5.699042900229685 0 0 0
21 3 7 0.09760000000000001 4.538958751088489 -0.1770896560818869 -8.591380129071078 0 0 0
12 2 1 0.0603 4.535471524265061 2.143644998594522 -2.86372297973993 0 0 0
20 3 7 0.09760000000000001 6.025791719040027 -0.1857153712880986 -8.02056286956204 0 0 0
11 2 2 -0.1825 5.059969198206902 1.9405682183158284 -3.7690783232321636 0 0 0
19 3 2 -0.149 5.361294647729916 0.49254185311695536 -8.309567884711722 0 0 0
18 3 6 0.2719 5.075216359560769 2.339551187439551 -7.175008175958374 0 0 0
17 3 5 -0.4157 5.024113412085618 1.2717593727069885 -7.150617848648715 0 0 0
22 3 7 0.09760000000000001 5.7008984940541545 1.0524541106247742 -9.216097494627538 0 0 0

Velocities

3 0.007004258063441102 0.004309890839093193 -0.005015605065244175
7 -0.0022369645722754173 -0.006124092106237509 -0.0012399784220417387
1 0.002864748444197666 0.018090133766889865 -0.01731076023104427
5 0.004043161717846646 0.005345877353073511 -0.001764927923062196
2 0.011843340716004118 0.002401655862379214 0.00897868973602835
4 -0.00731046311479081 0.007888126213543133 0.001463480947263363
8 0.015283767186074711 0.009385313668081461 -0.009262313551388533
10 0.007055494872682814 -0.001635427889054632 -0.0030309155256562706
13 -0.002169171311364766 0.0071854783709564135 -0.026379591416862483
9 -0.005615525439302051 0.0019666431838092644 -0.0015718233462117352
6 -0.002474881416383209 0.005372274979626629 0.0032145919313357743
15 0.008071206420798638 -0.003894271999822888 -0.005051553584572925
14 0.0022548076858388082 0.0207172446029397 -0.0046441511484176775
16 -0.0010266180420359762 0.0010951093564698958 -0.0053413712723892285
21 0.012038028506617721 -0.005980453599906625 0.01630987023051507
12 0.008893630390365987 0.02532482982181869 -0.046435776275997556
20 -0.006663545280099893 -0.0025032042142255134 0.0014072077282855666
11 -0.005970316425751205 -0.006868440104524254 -0.0005274749106689964
19 0.0004156107109786942 0.011834257376612145 8.304183175234956e-05
18 -0.020434164729546744 -0.0029903149305503048 -0.02661450135593698
17 -0.007612552272850769 0.006091033950423308 -0.00028842262886083145
22 0.01945355034644328 -0.0043413592128750764 -0.009350811455864645

Bonds

1 7 7 8
2 8 7 9
3 1 1 2
4 5 5 6
5 6 5 7
6 2 2 3
7 3 2 4
8 4 2 5
9 9 9 10
10 10 9 11
11 11 9 15
12 15 15 16
13 16 15 17
14 12 11 12
15 13 11 13
16 14 11 14
17 19 19 20
18 20 19 21
19 21 19 22
20 17 17 18
21 18 17 19

Angles

1 9 5 7 8
2 10 5 7 9
3 15 8 7 9
4 4 2 5 6
5 5 2 5 7
6 11 6 5 7
7 1 1 2 3
8 2 1 2 4
9 3 1 2 5
10 6 3 2 4
11 7 3 2 5
12 8 4 2 5
13 12 7 9 10
14 13 7 9 11
15 14 7 9 15
16 21 10 9 11
17 22 10 9 15
18 23 11 9 15
19 19 9 15 16
20 20 9 15 17
21 29 16 15 17
22 16 9 11 12
23 17 9 11 13
24 18 9 11 14
25 24 12 11 13
26 25 12 11 14
27 26 13 11 14
28 30 17 19 20
29 31 17 19 21
30 32 17 19 22
31 34 20 19 21
32 35 20 19 22
33 36 21 19 22
34 27 15 17 18
35 28 15 17 19
36 33 18 17 19

Dihedrals

1 6 2 7 5 6
2 13 5 7 9 10
3 14 5 7 9 11
4 15 5 7 9 11
5 16 5 7 9 11
6 17 5 7 9 15
7 18 5 7 9 15
8 30 8 7 9 10
9 31 8 7 9 11
10 32 8 7 9 15
11 4 2 5 7 8
12 5 2 5 7 9
13 20 6 5 7 8
14 21 6 5 7 8
15 22 6 5 7 9
16 1 1 2 5 6
17 2 1 2 5 6
18 3 1 2 5 7
19 7 3 2 5 6
20 8 3 2 5 6
21 9 3 2 5 7
22 10 4 2 5 6
23 11 4 2 5 6
24 12 4 2 5 7
25 19 5 9 7 8
26 23 7 9 11 12
27 24 7 9 11 13
28 25 7 9 11 14
29 26 7 9 15 16
30 27 7 9 15 17
31 28 7 9 15 17
32 29 7 9 15 17
33 36 10 9 11 12
34 37 10 9 11 13
35 38 10 9 11 14
36 39 10 9 15 16
37 40 10 9 15 16
38 41 10 9 15 17
39 42 11 9 15 16
40 43 11 9 15 17
41 44 11 9 15 17
42 45 11 9 15 17
43 46 15 9 11 12
44 47 15 9 11 13
45 48 15 9 11 14
46 33 9 15 17 18
47 34 9 15 17 19
48 53 16 15 17 18
49 54 16 15 17 18
50 55 16 15 17 19
51 52 15 19 17 18
52 35 9 17 15 16
53 49 15 17 19 20
54 50 15 17 19 21
55 51 15 17 19 22
56 56 18 17 19 20
57 57 18 17 19 21
58 58 18 17 19 22
