LAMMPS data file via write_data, version 23 Jun 2022, timestep = 1000000

22 atoms
7 atom types
21 bonds
21 bond types
36 angles
36 angle types
58 dihedrals
58 dihedral types

-25 25 xlo xhi
-25 25 ylo yhi
-25 25 zlo zhi

Masses

1 1.008
2 12.01
3 12.01
4 16
5 14.01
6 1.008
7 1.008

Atoms # full

3 1 1 0.1123 1.3743170658980648 -0.155530115185253 -2.407109260839053 0 0 0
7 2 5 -0.4157 2.9533325586019865 0.8823923668500601 -4.183149665295429 0 0 0
1 1 1 0.1123 0.30612813179771003 0.062344805011453897 -3.734006733148792 0 0 0
5 1 3 0.5972 1.8888726656083588 1.477844618971302 -3.731311382880096 0 0 0
2 1 2 -0.3662 0.8750153852006832 0.6168905486364397 -2.987665746023081 0 0 0
4 1 1 0.1123 0.28895533220689845 1.2452902595145012 -2.4212814200484525 0 0 0
8 2 6 0.2719 3.050218860391857 -0.15748274025333378 -4.10348407185893 0 0 0
10 2 7 0.0823 3.795086984104161 2.464972994831053 -5.356919895396637 0 0 0
13 2 1 0.0603 5.577983923921349 1.0619840985291333 -3.2745907570574 0 0 0
9 2 2 0.0337 4.045984526081153 1.5483482100046049 -4.869881709611737 0 0 0
6 1 4 -0.5679 1.6766703426812968 2.657574788291464 -4.0258991200932694 0 0 0
15 2 3 0.5973000000000001 4.687710021810935 0.6503359884171683 -5.981178845086227 0 0 0
14 2 1 0.0603 5.839147136645737 2.558623861389211 -4.000250829926888 0 0 0
16 2 4 -0.5679 4.723483958592934 -0.529578134167759 -5.748756078469962 0 0 0
21 3 7 0.09760000000000001 4.399890196271592 0.18993789179466153 -8.72764092980579 0 0 0
12 2 1 0.0603 4.688276886611741 2.4993389207953984 -2.9641792392349315 0 0 0
20 3 7 0.09760000000000001 6.119190699516404 -0.11382741915539864 -8.189011091050396 0 0 0
11 2 2 -0.1825 5.055957516132677 1.9050262965404188 -3.7582823879256795 0 0 0
19 3 2 -0.149 5.367274508129218 0.6214865980416067 -8.349837083099663 0 0 0
18 3 6 0.2719 5.083211883828464 2.282536531997784 -7.105629250838243 0 0 0
17 3 5 -0.4157 5.060657676392696 1.3346850982217204 -7.117974413248187 0 0 0
22 3 7 0.09760000000000001 5.772567539506329 1.3179492368600327 -9.142766991196897 0 0 0

Velocities

3 -0.006637535795012299 -0.003365452347051625 0.0020948935242141712
7 -0.0007554081793019835 -0.006876054435683514 -0.004954237844849828
1 0.026578718197528935 0.0031903984745638523 -0.02638179104737654
5 0.00011981718566235846 -0.0003221437705630782 -0.00026457396655726173
2 0.0012803656329149875 -0.008633278620411074 -0.002429748200183114
4 0.009995636892733065 -0.014943150873093811 -0.03683388320966356
8 -0.010220240659724315 -0.0001758809815855173 -0.02436473376000582
10 0.012641924634456111 -0.007764120701884054 -0.010762265176564022
13 -0.014557185760027434 0.0026910865728458342 0.0015257060184367876
9 -0.002338434479341607 0.004409018844156172 -0.000828459881849908
6 -0.0038460701978555527 0.0009270861847805044 0.0033306802125962977
15 -0.005362769224619046 0.0069746315977389445 0.00097766703687506
14 -0.017722216081505492 -0.03360404614535948 0.006447003724304096
16 0.007062816089165455 -0.00585507132544446 -0.008934257405082024
21 -0.015363762959744068 -0.01953928191478626 -0.003209879001857773
12 -0.01703263593849326 0.009153372946524872 5.9050586895950836e-05
20 -0.021011164843501497 0.002167320571605065 -0.016110235573571142
11 0.001455674956242784 0.004907037021427728 0.003289337772553268
19 0.0026293650939201918 -0.005890471745898704 0.002924075781667221
18 -0.01402624141587433 0.019868532203478024 -0.007940335282413311
17 0.0008669594248653047 -0.008271214026823823 0.005767529330122196
22 -0.04231594735128216 -0.007965296818333564 -0.008369326031185245

Bonds

1 7 7 8
2 8 7 9
3 1 1 2
4 5 5 6
5 6 5 7
6 2 2 3
7 3 2 4
8 4 2 5
9 9 9 10
10 10 9 11
11 11 9 15
12 15 15 16
13 16 15 17
14 12 11 12
15 13 11 13
16 14 11 14
17 19 19 20
18 20 19 21
19 21 19 22
20 17 17 18
21 18 17 19

Angles

1 9 5 7 8
2 10 5 7 9
3 15 8 7 9
4 4 2 5 6
5 5 2 5 7
6 11 6 5 7
7 1 1 2 3
8 2 1 2 4
9 3 1 2 5
10 6 3 2 4
11 7 3 2 5
12 8 4 2 5
13 12 7 9 10
14 13 7 9 11
15 14 7 9 15
16 21 10 9 11
17 22 10 9 15
18 23 11 9 15
19 19 9 15 16
20 20 9 15 17
21 29 16 15 17
22 16 9 11 12
23 17 9 11 13
24 18 9 11 14
25 24 12 11 13
26 25 12 11 14
27 26 13 11 14
28 30 17 19 20
29 31 17 19 21
30 32 17 19 22
31 34 20 19 21
32 35 20 19 22
33 36 21 19 22
34 27 15 17 18
35 28 15 17 19
36 33 18 17 19

Dihedrals

1 6 2 7 5 6
2 13 5 7 9 10
3 14 5 7 9 11
4 15 5 7 9 11
5 16 5 7 9 11
6 17 5 7 9 15
7 18 5 7 9 15
8 30 8 7 9 10
9 31 8 7 9 11
10 32 8 7 9 15
11 4 2 5 7 8
12 5 2 5 7 9
13 20 6 5 7 8
14 21 6 5 7 8
15 22 6 5 7 9
16 1 1 2 5 6
17 2 1 2 5 6
18 3 1 2 5 7
19 7 3 2 5 6
20 8 3 2 5 6
21 9 3 2 5 7
22 10 4 2 5 6
23 11 4 2 5 6
24 12 4 2 5 7
25 19 5 9 7 8
26 23 7 9 11 12
27 24 7 9 11 13
28 25 7 9 11 14
29 26 7 9 15 16
30 27 7 9 15 17
31 28 7 9 15 17
32 29 7 9 15 17
33 36 10 9 11 12
34 37 10 9 11 13
35 38 10 9 11 14
36 39 10 9 15 16
37 40 10 9 15 16
38 41 10 9 15 17
39 42 11 9 15 16
40 43 11 9 15 17
41 44 11 9 15 17
42 45 11 9 15 17
43 46 15 9 11 12
44 47 15 9 11 13
45 48 15 9 11 14
46 33 9 15 17 18
47 34 9 15 17 19
48 53 16 15 17 18
49 54 16 15 17 18
50 55 16 15 17 19
51 52 15 19 17 18
52 35 9 17 15 16
53 49 15 17 19 20
54 50 15 17 19 21
55 51 15 17 19 22
56 56 18 17 19 20
57 57 18 17 19 21
58 58 18 17 19 22
