LAMMPS data file via write_data, version 23 Jun 2022, timestep = 1000000

22 atoms
7 atom types
21 bonds
21 bond types
36 angles
36 angle types
58 dihedrals
58 dihedral types

-25 25 xlo xhi
-25 25 ylo yhi
-25 25 zlo zhi

Masses

1 1.008
2 12.01
3 12.01
4 16
5 14.01
6 1.008
7 1.008

Atoms # full

3 1 1 0.1123 1.4689541670803716 -0.03239910679483293 -2.3165523195147646 0 0 0
7 2 5 -0.4157 2.9476224755092977 0.8125287623817986 -4.21727312246186 0 0 0
1 1 1 0.1123 0.2721148286135877 0.07576751370195786 -3.709010425247229 0 0 0
5 1 3 0.5972 1.8951056739858845 1.4402990912195406 -3.7651447928954873 0 0 0
2 1 2 -0.3662 0.8907528609014843 0.6063182960710478 -2.9882712755098053 0 0 0
4 1 1 0.1123 0.22990580368008007 1.2944389673393701 -2.4327332107218296 0 0 0
8 2 6 0.2719 3.0288257971851604 -0.2513363917254098 -4.08942490270435 0 0 0
10 2 7 0.0823 3.6360959238639383 2.4191329917016593 -5.376755133978134 0 0 0
13 2 1 0.0603 5.670953798155891 1.2235691930594117 -3.372987761076511 0 0 0
9 2 2 0.0337 4.02824034105152 1.537739731967714 -4.845492376364069 0 0 0
6 1 4 -0.5679 1.6223231613160214 2.6061515418311587 -3.950544954659959 0 0 0
15 2 3 0.5973000000000001 4.647208902366634 0.7012117383494829 -5.944980359479443 0 0 0
14 2 1 0.0603 5.650455077496608 2.744789084891356 -4.040490038657767 0 0 0
16 2 4 -0.5679 4.664310902470168 -0.5375810341133941 -5.814104399279671 0 0 0
21 3 7 0.09760000000000001 4.358094846600463 0.572568154530084 -8.950391317827263 0 0 0
12 2 1 0.0603 4.4834968726790265 2.174567106992507 -2.7848918953765525 0 0 0
20 3 7 0.09760000000000001 5.649246864428423 -0.3951976637747141 -8.238059051085147 0 0 0
11 2 2 -0.1825 5.037079247197256 1.8875595797074545 -3.753861032251251 0 0 0
19 3 2 -0.149 5.312960754151949 0.7124909219536767 -8.348779527970006 0 0 0
18 3 6 0.2719 5.141329358532644 2.312032693830223 -7.0127891782189264 0 0 0
17 3 5 -0.4157 5.103919319249614 1.2878696578457587 -7.0458954987861775 0 0 0
22 3 7 0.09760000000000001 6.017981465208049 1.2985370632555606 -8.962396234335452 0 0 0

Velocities

3 -0.005171163225083221 0.020047172812677573 0.029945675779288732
7 -0.012403492318819941 -0.007738424407909496 0.0021594810805568646
1 -0.011199806589476995 -0.005961408064552885 0.00039585633679105597
5 -0.006952992024630991 -0.005224013819484569 -0.0009693294469296953
2 0.004476246881060833 -0.0029243249618569537 0.004204440732946855
4 0.006002316016399386 -0.015337787236937982 -0.015488636233111693
8 -0.014121591520140017 -0.01435433790971849 -0.0009883663052427723
10 -0.00044906039836575687 -0.006198126883181365 -0.013449107213980226
13 -0.01860114468901992 0.006037403618153512 -0.005565864314462288
9 -0.0005775059921049107 0.0009225750731066099 0.00236543051438009
6 -0.0012306334933226703 -0.0005532137141555183 -0.002242317077014703
15 0.0008045319039833889 -0.004807024921790281 -0.00014868159390087478
14 -0.006314155032542893 0.009601836508663215 -0.023213401348121193
16 -0.0029503847305258654 -0.007300306999678003 0.0005388666987628762
21 0.0166172307807133 -0.008665168021147203 0.010242248409969556
12 0.0158766483951261 -0.007578475152789582 -0.032560118867750204
20 -0.016830437289440354 0.0009760185922356663 -0.01074114393717036
11 -0.0061823187576480094 -0.0005654277129820479 -0.0016437733832125646
19 0.0003099288949623262 -0.0032496509141330225 0.0012760713973588025
18 0.00849438468045539 -0.022754988839613088 -0.016283484822594212
17 0.00435017697657079 -0.0007653855353593015 -0.0005300821006328604
22 0.013824117627658316 0.014798458691795748 0.021546881416024455

Bonds

1 7 7 8
2 8 7 9
3 1 1 2
4 5 5 6
5 6 5 7
6 2 2 3
7 3 2 4
8 4 2 5
9 9 9 10
10 10 9 11
11 11 9 15
12 15 15 16
13 16 15 17
14 12 11 12
15 13 11 13
16 14 11 14
17 19 19 20
18 20 19 21
19 21 19 22
20 17 17 18
21 18 17 19

Angles

1 9 5 7 8
2 10 5 7 9
3 15 8 7 9
4 4 2 5 6
5 5 2 5 7
6 11 6 5 7
7 1 1 2 3
8 2 1 2 4
9 3 1 2 5
10 6 3 2 4
11 7 3 2 5
12 8 4 2 5
13 12 7 9 10
14 13 7 9 11
15 14 7 9 15
16 21 10 9 11
17 22 10 9 15
18 23 11 9 15
19 19 9 15 16
20 20 9 15 17
21 29 16 15 17
22 16 9 11 12
23 17 9 11 13
24 18 9 11 14
25 24 12 11 13
26 25 12 11 14
27 26 13 11 14
28 30 17 19 20
29 31 17 19 21
30 32 17 19 22
31 34 20 19 21
32 35 20 19 22
33 36 21 19 22
34 27 15 17 18
35 28 15 17 19
36 33 18 17 19

Dihedrals

1 6 2 7 5 6
2 13 5 7 9 10
3 14 5 7 9 11
4 15 5 7 9 11
5 16 5 7 9 11
6 17 5 7 9 15
7 18 5 7 9 15
8 30 8 7 9 10
9 31 8 7 9 11
10 32 8 7 9 15
11 4 2 5 7 8
12 5 2 5 7 9
13 20 6 5 7 8
14 21 6 5 7 8
15 22 6 5 7 9
16 1 1 2 5 6
17 2 1 2 5 6
18 3 1 2 5 7
19 7 3 2 5 6
20 8 3 2 5 6
21 9 3 2 5 7
22 10 4 2 5 6
23 11 4 2 5 6
24 12 4 2 5 7
25 19 5 9 7 8
26 23 7 9 11 12
27 24 7 9 11 13
28 25 7 9 11 14
29 26 7 9 15 16
30 27 7 9 15 17
31 28 7 9 15 17
32 29 7 9 15 17
33 36 10 9 11 12
34 37 10 9 11 13
35 38 10 9 11 14
36 39 10 9 15 16
37 40 10 9 15 16
38 41 10 9 15 17
39 42 11 9 15 16
40 43 11 9 15 17
41 44 11 9 15 17
42 45 11 9 15 17
43 46 15 9 11 12
44 47 15 9 11 13
45 48 15 9 11 14
46 33 9 15 17 18
47 34 9 15 17 19
48 53 16 15 17 18
49 54 16 15 17 18
50 55 16 15 17 19
51 52 15 19 17 18
52 35 9 17 15 16
53 49 15 17 19 20
54 50 15 17 19 21
55 51 15 17 19 22
56 56 18 17 19 20
57 57 18 17 19 21
58 58 18 17 19 22
