LAMMPS data file via write_data, version 23 Jun 2022, timestep = 1000000

22 atoms
7 atom types
21 bonds
21 bond types
36 angles
36 angle types
58 dihedrals
58 dihedral types

-25 25 xlo xhi
-25 25 ylo yhi
-25 25 zlo zhi

Masses

1 1.008
2 12.01
3 12.01
4 16
5 14.01
6 1.008
7 1.008

Atoms # full

3 1 1 0.1123 1.4247582898604838 0.0016432297395127804 -2.453983457951069 0 0 0
7 2 5 -0.4157 2.9598634000191177 0.8589749000338253 -4.172522029781235 0 0 0
1 1 1 0.1123 0.2984235461870826 0.11974500698241287 -3.8784224444296913 0 0 0
5 1 3 0.5972 1.8377926828098037 1.4628434298807897 -3.7403958816057163 0 0 0
2 1 2 -0.3662 0.8236930884842794 0.6119775996259016 -3.0564681040436654 0 0 0
4 1 1 0.1123 0.168337123421644 1.1467738920026964 -2.393212883712763 0 0 0
8 2 6 0.2719 3.1484887657420466 -0.09336972953843142 -4.003411745317736 0 0 0
10 2 7 0.0823 3.6531533726731413 2.443079485268903 -5.367251991364727 0 0 0
13 2 1 0.0603 5.864330153311157 1.023732558109395 -3.623452502484437 0 0 0
9 2 2 0.0337 4.062628312775295 1.5630839678043484 -4.861025131647005 0 0 0
6 1 4 -0.5679 1.6419215752742475 2.668925804004308 -3.917992482169251 0 0 0
15 2 3 0.5973000000000001 4.7057916412966785 0.7333263233390976 -5.972379603271071 0 0 0
14 2 1 0.0603 5.742581005691306 2.789895695426651 -3.980434640539191 0 0 0
16 2 4 -0.5679 4.784777318983271 -0.5048284805243588 -5.879694888072766 0 0 0
21 3 7 0.09760000000000001 4.436871812238536 0.6608631468545817 -8.97878535179261 0 0 0
12 2 1 0.0603 4.643289926952384 1.9904410217514916 -2.737884321877258 0 0 0
20 3 7 0.09760000000000001 5.638571551194391 -0.27735358414088207 -8.248975834765806 0 0 0
11 2 2 -0.1825 5.132321995785539 1.9070551218408196 -3.8101839491853147 0 0 0
19 3 2 -0.149 5.283885420692461 0.7257423071666267 -8.374624434696864 0 0 0
18 3 6 0.2719 5.115789503989746 2.3025148886383517 -7.027611500417709 0 0 0
17 3 5 -0.4157 5.116552451010037 1.3422361758351258 -7.077309579087254 0 0 0
22 3 7 0.09760000000000001 6.09133384147354 1.2672707687471774 -8.911766875036031 0 0 0

Velocities

3 -0.00869555142227732 0.03296396918858164 0.028931625597209864
7 0.0010012491731049757 -0.0009602487200183372 -0.002212706362547099
1 -0.004799895174541678 0.00044499568467799844 0.007541368719551183
5 -0.007005570209198454 -0.0028536949364366113 0.0023128593866586734
2 -0.006683530651107418 0.0023795200900491235 -0.010563250384429764
4 -0.004180523344759927 -0.032208893963029415 0.005258847694364139
8 -0.005929389746308519 -0.0010691398221507106 -0.017352172699747263
10 0.003097639659830353 0.01615569695856542 -0.011624604879648726
13 -0.006428004181293771 -0.01844372264596881 -0.0032612698834333046
9 -0.006325218701948189 -0.0017086819881348165 0.0004595098607311852
6 0.004810149029841303 0.001572542134467648 -0.0023799350170373144
15 0.014097075385145064 -0.001310661059915135 -0.001561316624773222
14 4.9131630414124116e-05 0.002788280773536952 0.03182015365727168
16 0.0025520064869306532 -0.0001607939603241558 -0.0008192657033726694
21 0.002581150099778236 0.004489927060954553 -0.00635616327160188
12 0.023071574690602885 -0.014981919917018657 0.00021945358059127004
20 0.005222523816151328 -0.0064810478387088526 0.015450654364731817
11 0.0057103188710897635 -0.00039834151998857084 -0.0026968391308043503
19 0.0024873805405148993 -0.006921059754733783 -0.00465263799765834
18 -0.00047928133007936686 -0.019315615382314997 -0.002639950965425247
17 0.007092115481507281 0.00287090078043731 0.003368930781252038
22 -0.0059030909038787285 -0.0105132606027887 0.014349912789303898

Bonds

1 7 7 8
2 8 7 9
3 1 1 2
4 5 5 6
5 6 5 7
6 2 2 3
7 3 2 4
8 4 2 5
9 9 9 10
10 10 9 11
11 11 9 15
12 15 15 16
13 16 15 17
14 12 11 12
15 13 11 13
16 14 11 14
17 19 19 20
18 20 19 21
19 21 19 22
20 17 17 18
21 18 17 19

Angles

1 9 5 7 8
2 10 5 7 9
3 15 8 7 9
4 4 2 5 6
5 5 2 5 7
6 11 6 5 7
7 1 1 2 3
8 2 1 2 4
9 3 1 2 5
10 6 3 2 4
11 7 3 2 5
12 8 4 2 5
13 12 7 9 10
14 13 7 9 11
15 14 7 9 15
16 21 10 9 11
17 22 10 9 15
18 23 11 9 15
19 19 9 15 16
20 20 9 15 17
21 29 16 15 17
22 16 9 11 12
23 17 9 11 13
24 18 9 11 14
25 24 12 11 13
26 25 12 11 14
27 26 13 11 14
28 30 17 19 20
29 31 17 19 21
30 32 17 19 22
31 34 20 19 21
32 35 20 19 22
33 36 21 19 22
34 27 15 17 18
35 28 15 17 19
36 33 18 17 19

Dihedrals

1 6 2 7 5 6
2 13 5 7 9 10
3 14 5 7 9 11
4 15 5 7 9 11
5 16 5 7 9 11
6 17 5 7 9 15
7 18 5 7 9 15
8 30 8 7 9 10
9 31 8 7 9 11
10 32 8 7 9 15
11 4 2 5 7 8
12 5 2 5 7 9
13 20 6 5 7 8
14 21 6 5 7 8
15 22 6 5 7 9
16 1 1 2 5 6
17 2 1 2 5 6
18 3 1 2 5 7
19 7 3 2 5 6
20 8 3 2 5 6
21 9 3 2 5 7
22 10 4 2 5 6
23 11 4 2 5 6
24 12 4 2 5 7
25 19 5 9 7 8
26 23 7 9 11 12
27 24 7 9 11 13
28 25 7 9 11 14
29 26 7 9 15 16
30 27 7 9 15 17
31 28 7 9 15 17
32 29 7 9 15 17
33 36 10 9 11 12
34 37 10 9 11 13
35 38 10 9 11 14
36 39 10 9 15 16
37 40 10 9 15 16
38 41 10 9 15 17
39 42 11 9 15 16
40 43 11 9 15 17
41 44 11 9 15 17
42 45 11 9 15 17
43 46 15 9 11 12
44 47 15 9 11 13
45 48 15 9 11 14
46 33 9 15 17 18
47 34 9 15 17 19
48 53 16 15 17 18
49 54 16 15 17 18
50 55 16 15 17 19
51 52 15 19 17 18
52 35 9 17 15 16
53 49 15 17 19 20
54 50 15 17 19 21
55 51 15 17 19 22
56 56 18 17 19 20
57 57 18 17 19 21
58 58 18 17 19 22
