LAMMPS data file via write_data, version 23 Jun 2022, timestep = 1000000

22 atoms
7 atom types
21 bonds
21 bond types
36 angles
36 angle types
58 dihedrals
58 dihedral types

-25 25 xlo xhi
-25 25 ylo yhi
-25 25 zlo zhi

Masses

1 1.008
2 12.01
3 12.01
4 16
5 14.01
6 1.008
7 1.008

Atoms # full

3 1 1 0.1123 1.3119799213158565 -0.24185806602430457 -2.4788390979825405 0 0 0
7 2 5 -0.4157 2.950127926096602 0.7911232553809469 -4.1190039427306075 0 0 0
1 1 1 0.1123 0.09964194173041203 0.2530951798841549 -3.6858791718058073 0 0 0
5 1 3 0.5972 1.852130622286027 1.4267670995676243 -3.7179910715438664 0 0 0
2 1 2 -0.3662 0.8984092805159412 0.5708002039574095 -2.9688526420356474 0 0 0
4 1 1 0.1123 0.44473869740293265 1.2715675593417353 -2.115401640877887 0 0 0
8 2 6 0.2719 3.036258285191373 -0.23143309108439772 -3.8768385328926245 0 0 0
10 2 7 0.0823 3.735695231459178 2.404543889030437 -5.367657912139134 0 0 0
13 2 1 0.0603 5.505024809587499 1.018024355488771 -3.236594626209723 0 0 0
9 2 2 0.0337 3.9902746213194864 1.4878334318375563 -4.851133436575836 0 0 0
6 1 4 -0.5679 1.5707235755119102 2.6000774202702592 -3.9671831698021855 0 0 0
15 2 3 0.5973000000000001 4.494766127148372 0.5799406174421928 -6.029460121780047 0 0 0
14 2 1 0.0603 5.7255540226675405 2.3477022793110747 -4.417974497964941 0 0 0
16 2 4 -0.5679 4.633499471607888 -0.6476210209601101 -5.8026042015845345 0 0 0
21 3 7 0.09760000000000001 4.65211386893713 -0.14339799032378292 -8.71008016993476 0 0 0
12 2 1 0.0603 4.659371666051325 2.5483366405229098 -3.131846538159069 0 0 0
20 3 7 0.09760000000000001 6.273027455984587 0.06671036067139494 -8.17484872122818 0 0 0
11 2 2 -0.1825 5.002381593988429 1.900202710676072 -3.8292728147745754 0 0 0
19 3 2 -0.149 5.360472466685853 0.5867976498553313 -8.396567432534491 0 0 0
18 3 6 0.2719 4.893985320460806 2.248476938950169 -7.079070441193547 0 0 0
17 3 5 -0.4157 4.86224521036215 1.2059527458053396 -7.126435311440266 0 0 0
22 3 7 0.09760000000000001 5.622906563283792 1.3351057959218455 -9.151308770608551 0 0 0

Velocities

3 0.009276620114809158 -0.026710544788500077 0.011711804711218264
7 0.0009249848883941942 -0.0015052208000568461 -0.004528322306689266
1 0.005397806604198467 -0.00890064982117699 -0.005750457141377212
5 -0.00156951727325513 0.002192151126111046 -0.009536428399212794
2 0.005240254395220158 -0.007464779595897076 -0.0014488857968623728
4 0.0015866444825185745 -0.020143774980243997 -0.008413349366727989
8 -0.008348500599994986 -0.003891639800295198 -0.003292744713563128
10 -0.005441002257604861 -0.008480786806092565 0.0023767964852859065
13 -0.02055708887846057 0.0015139027755576551 -0.0015213562767925877
9 -0.0009145048978513877 -0.0032679532037791646 0.0019210022726166786
6 0.004384407040839366 -0.0031873830770850404 -0.0035254436219012294
15 0.005926347306625349 0.004024063044635133 0.0011037956288589825
14 0.006395951715505968 0.004104563666725609 0.001971788601360623
16 -0.005427630631215699 0.0002930753034354112 -0.008592108529412583
21 0.001298863973355992 -9.462669180165155e-05 0.0024467115134613115
12 -0.012715174856658198 0.012775595142230955 -0.015111936663349642
20 -0.01707620173528399 -0.002602512190837504 -0.0015681269975906056
11 0.0008795867199405976 0.000984147867310101 -0.006079238612090894
19 0.003488034841215314 0.00034000187430834094 -0.001371668610072205
18 -0.015561567115550744 0.001932655735132638 -0.013492679024152965
17 0.0008991677809280046 -0.005949834289885183 0.0004455108127419203
22 -0.012674878187387408 0.01222401374409381 -0.01547301831975134

Bonds

1 7 7 8
2 8 7 9
3 1 1 2
4 5 5 6
5 6 5 7
6 2 2 3
7 3 2 4
8 4 2 5
9 9 9 10
10 10 9 11
11 11 9 15
12 15 15 16
13 16 15 17
14 12 11 12
15 13 11 13
16 14 11 14
17 19 19 20
18 20 19 21
19 21 19 22
20 17 17 18
21 18 17 19

Angles

1 9 5 7 8
2 10 5 7 9
3 15 8 7 9
4 4 2 5 6
5 5 2 5 7
6 11 6 5 7
7 1 1 2 3
8 2 1 2 4
9 3 1 2 5
10 6 3 2 4
11 7 3 2 5
12 8 4 2 5
13 12 7 9 10
14 13 7 9 11
15 14 7 9 15
16 21 10 9 11
17 22 10 9 15
18 23 11 9 15
19 19 9 15 16
20 20 9 15 17
21 29 16 15 17
22 16 9 11 12
23 17 9 11 13
24 18 9 11 14
25 24 12 11 13
26 25 12 11 14
27 26 13 11 14
28 30 17 19 20
29 31 17 19 21
30 32 17 19 22
31 34 20 19 21
32 35 20 19 22
33 36 21 19 22
34 27 15 17 18
35 28 15 17 19
36 33 18 17 19

Dihedrals

1 6 2 7 5 6
2 13 5 7 9 10
3 14 5 7 9 11
4 15 5 7 9 11
5 16 5 7 9 11
6 17 5 7 9 15
7 18 5 7 9 15
8 30 8 7 9 10
9 31 8 7 9 11
10 32 8 7 9 15
11 4 2 5 7 8
12 5 2 5 7 9
13 20 6 5 7 8
14 21 6 5 7 8
15 22 6 5 7 9
16 1 1 2 5 6
17 2 1 2 5 6
18 3 1 2 5 7
19 7 3 2 5 6
20 8 3 2 5 6
21 9 3 2 5 7
22 10 4 2 5 6
23 11 4 2 5 6
24 12 4 2 5 7
25 19 5 9 7 8
26 23 7 9 11 12
27 24 7 9 11 13
28 25 7 9 11 14
29 26 7 9 15 16
30 27 7 9 15 17
31 28 7 9 15 17
32 29 7 9 15 17
33 36 10 9 11 12
34 37 10 9 11 13
35 38 10 9 11 14
36 39 10 9 15 16
37 40 10 9 15 16
38 41 10 9 15 17
39 42 11 9 15 16
40 43 11 9 15 17
41 44 11 9 15 17
42 45 11 9 15 17
43 46 15 9 11 12
44 47 15 9 11 13
45 48 15 9 11 14
46 33 9 15 17 18
47 34 9 15 17 19
48 53 16 15 17 18
49 54 16 15 17 18
50 55 16 15 17 19
51 52 15 19 17 18
52 35 9 17 15 16
53 49 15 17 19 20
54 50 15 17 19 21
55 51 15 17 19 22
56 56 18 17 19 20
57 57 18 17 19 21
58 58 18 17 19 22
