LAMMPS data file via write_data, version 23 Jun 2022, timestep = 1000000

22 atoms
7 atom types
21 bonds
21 bond types
36 angles
36 angle types
58 dihedrals
58 dihedral types

-25 25 xlo xhi
-25 25 ylo yhi
-25 25 zlo zhi

Masses

1 1.008
2 12.01
3 12.01
4 16
5 14.01
6 1.008
7 1.008

Atoms # full

3 1 1 0.1123 1.3294574367050778 -0.2515514420315527 -2.687558760081794 0 0 0
7 2 5 -0.4157 2.9700357844924903 0.8456967413970611 -4.20701932464168 0 0 0
1 1 1 0.1123 -0.03229190900692609 0.18310574057044657 -3.8196635933222716 0 0 0
5 1 3 0.5972 1.8394291703179961 1.447219050414642 -3.7572072558973435 0 0 0
2 1 2 -0.3662 0.7575659617132948 0.5688086099716014 -3.1193576377673633 0 0 0
4 1 1 0.1123 0.2196956084087675 1.155187369416926 -2.4384810964360573 0 0 0
8 2 6 0.2719 3.027485897556968 -0.09311684787336863 -4.078469880546845 0 0 0
10 2 7 0.0823 3.6727879761432467 2.36901859210988 -5.298129204008647 0 0 0
13 2 1 0.0603 5.296134507573706 1.0712134445956574 -3.3484008714728057 0 0 0
9 2 2 0.0337 4.121600916648697 1.5230102972903385 -4.8826121711440855 0 0 0
6 1 4 -0.5679 1.619714507342354 2.629809084627273 -4.02850200531573 0 0 0
15 2 3 0.5973000000000001 4.638338069924093 0.5923595351342216 -5.962975611335758 0 0 0
14 2 1 0.0603 5.892905751522467 2.4977618691653896 -4.301347972610639 0 0 0
16 2 4 -0.5679 4.690707805590441 -0.6052067191259763 -5.8046007112450475 0 0 0
21 3 7 0.09760000000000001 4.574083831410381 -0.08828531643476906 -8.826968445757771 0 0 0
12 2 1 0.0603 4.58526120257748 2.6766566656731325 -3.2197627444104064 0 0 0
20 3 7 0.09760000000000001 6.204266840420309 -0.3008590630857628 -8.170628077752447 0 0 0
11 2 2 -0.1825 5.081047219643378 1.991710043690225 -3.85805853143562 0 0 0
19 3 2 -0.149 5.409109975586047 0.463181245934172 -8.302501270678702 0 0 0
18 3 6 0.2719 4.881072617250977 2.19718962797312 -7.068042301360105 0 0 0
17 3 5 -0.4157 4.954473947213769 1.1752479377423295 -7.077506725344678 0 0 0
22 3 7 0.09760000000000001 5.726211791577604 1.2064399898439104 -9.176332150800457 0 0 0

Velocities

3 0.019692380599183427 -0.009050059247813385 0.003473146421970722
7 -0.0022219951417238753 0.001534060524477582 -0.0038065068049167603
1 -0.008982412798682653 -0.007009656975103981 -0.012853368242931061
5 -0.0017548745785370462 -0.004675729479144292 0.004293294033844422
2 0.002896566083371843 0.0014909975381950634 -0.0013904948558155295
4 -0.003058836857275208 0.019071473527249472 0.015327236316026144
8 -0.006484494875533162 -0.019582649530764596 0.016043980145148264
10 0.015182172945021607 0.006606288510373422 -0.0015100772326983496
13 0.005049692404625307 -0.031018310951206534 -0.004995952936578008
9 -0.0069494451600970114 0.0032854669507506955 -0.0039002391391044305
6 0.006773637804650063 0.003761376719533417 0.0051321642239023895
15 0.005964000392854079 0.00029981318874599264 0.005909788953395776
14 0.006795887735448845 0.040651938239048745 0.010452635518152903
16 -0.0012969364191628397 -0.003196071651869777 -0.00041298542722698354
21 0.0017020898859604688 0.01761396816287134 -0.0035347998230559146
12 0.005277171860884091 0.019666108445463952 -0.0069462332871651124
20 -0.029234322422933855 0.015107060929181324 -0.011358914214733399
11 -0.0007674846462557851 0.0011100073181864814 0.0034026897017832595
19 0.00446942241021301 -0.0012761292416586538 0.005389686036629375
18 0.016836768697734157 -0.03491534526255978 0.00041956204830773764
17 -0.004417426669931082 0.007957572268627549 -0.0012378317886568707
22 0.009082162717566893 -0.007018354119236517 0.005224036545973849

Bonds

1 7 7 8
2 8 7 9
3 1 1 2
4 5 5 6
5 6 5 7
6 2 2 3
7 3 2 4
8 4 2 5
9 9 9 10
10 10 9 11
11 11 9 15
12 15 15 16
13 16 15 17
14 12 11 12
15 13 11 13
16 14 11 14
17 19 19 20
18 20 19 21
19 21 19 22
20 17 17 18
21 18 17 19

Angles

1 9 5 7 8
2 10 5 7 9
3 15 8 7 9
4 4 2 5 6
5 5 2 5 7
6 11 6 5 7
7 1 1 2 3
8 2 1 2 4
9 3 1 2 5
10 6 3 2 4
11 7 3 2 5
12 8 4 2 5
13 12 7 9 10
14 13 7 9 11
15 14 7 9 15
16 21 10 9 11
17 22 10 9 15
18 23 11 9 15
19 19 9 15 16
20 20 9 15 17
21 29 16 15 17
22 16 9 11 12
23 17 9 11 13
24 18 9 11 14
25 24 12 11 13
26 25 12 11 14
27 26 13 11 14
28 30 17 19 20
29 31 17 19 21
30 32 17 19 22
31 34 20 19 21
32 35 20 19 22
33 36 21 19 22
34 27 15 17 18
35 28 15 17 19
36 33 18 17 19

Dihedrals

1 6 2 7 5 6
2 13 5 7 9 10
3 14 5 7 9 11
4 15 5 7 9 11
5 16 5 7 9 11
6 17 5 7 9 15
7 18 5 7 9 15
8 30 8 7 9 10
9 31 8 7 9 11
10 32 8 7 9 15
11 4 2 5 7 8
12 5 2 5 7 9
13 20 6 5 7 8
14 21 6 5 7 8
15 22 6 5 7 9
16 1 1 2 5 6
17 2 1 2 5 6
18 3 1 2 5 7
19 7 3 2 5 6
20 8 3 2 5 6
21 9 3 2 5 7
22 10 4 2 5 6
23 11 4 2 5 6
24 12 4 2 5 7
25 19 5 9 7 8
26 23 7 9 11 12
27 24 7 9 11 13
28 25 7 9 11 14
29 26 7 9 15 16
30 27 7 9 15 17
31 28 7 9 15 17
32 29 7 9 15 17
33 36 10 9 11 12
34 37 10 9 11 13
35 38 10 9 11 14
36 39 10 9 15 16
37 40 10 9 15 16
38 41 10 9 15 17
39 42 11 9 15 16
40 43 11 9 15 17
41 44 11 9 15 17
42 45 11 9 15 17
43 46 15 9 11 12
44 47 15 9 11 13
45 48 15 9 11 14
46 33 9 15 17 18
47 34 9 15 17 19
48 53 16 15 17 18
49 54 16 15 17 18
50 55 16 15 17 19
51 52 15 19 17 18
52 35 9 17 15 16
53 49 15 17 19 20
54 50 15 17 19 21
55 51 15 17 19 22
56 56 18 17 19 20
57 57 18 17 19 21
58 58 18 17 19 22
