LAMMPS data file via write_data, version 23 Jun 2022, timestep = 1000000

22 atoms
7 atom types
21 bonds
21 bond types
36 angles
36 angle types
58 dihedrals
58 dihedral types

-25 25 xlo xhi
-25 25 ylo yhi
-25 25 zlo zhi

Masses

1 1.008
2 12.01
3 12.01
4 16
5 14.01
6 1.008
7 1.008

Atoms # full

3 1 1 0.1123 1.256454852618274 -0.4194637825504635 -2.531035512420192 0 0 0
7 2 5 -0.4157 2.932172450930941 0.7683482950117083 -4.057295258727772 0 0 0
1 1 1 0.1123 -0.06313721522018949 0.38987757690329217 -3.532290176497146 0 0 0
5 1 3 0.5972 1.7992407594300173 1.400509587288551 -3.665636208820883 0 0 0
2 1 2 -0.3662 0.8431845747379527 0.5275095287095711 -2.9266745694385303 0 0 0
4 1 1 0.1123 0.45459500556348303 1.0936174389083868 -2.0927012498751614 0 0 0
8 2 6 0.2719 3.0594207913187685 -0.08934381182106964 -3.7313650046565927 0 0 0
10 2 7 0.0823 3.556513829691391 2.3114724245026954 -5.226638532651581 0 0 0
13 2 1 0.0603 5.499127497021576 0.8444391471109988 -3.4733720490552558 0 0 0
9 2 2 0.0337 4.004450370816562 1.4139129806661432 -4.866888773336962 0 0 0
6 1 4 -0.5679 1.6295114320690551 2.6201320558767955 -3.867922160196426 0 0 0
15 2 3 0.5973000000000001 4.576928046563412 0.5157661910099031 -5.977773586796808 0 0 0
14 2 1 0.0603 6.057278949467428 2.185636916756355 -4.476873520739003 0 0 0
16 2 4 -0.5679 4.7192424939044155 -0.6926556011066 -5.842212052554623 0 0 0
21 3 7 0.09760000000000001 4.670585473485342 -0.023183977394877566 -8.755759310836599 0 0 0
12 2 1 0.0603 4.719697323552205 2.515133588736274 -3.135400874086648 0 0 0
20 3 7 0.09760000000000001 6.364533737137624 0.13102142453158727 -8.160067939627396 0 0 0
11 2 2 -0.1825 5.103123858906768 1.8120327257097202 -3.9036534197785415 0 0 0
19 3 2 -0.149 5.361821486965579 0.6435677431931507 -8.37339912776296 0 0 0
18 3 6 0.2719 4.770979514582959 2.2009155586231133 -7.122433948991135 0 0 0
17 3 5 -0.4157 4.794360681614091 1.196118205144063 -7.113522180115701 0 0 0
22 3 7 0.09760000000000001 5.532461181497497 1.4480195428307707 -9.154710398340939 0 0 0

Velocities

3 0.02399523775573654 0.0002663074539152265 0.00022022424188609252
7 0.0017171411942544929 -0.0035936283577428984 -0.004717091156429206
1 -0.009929821543814228 -0.0044862679115377745 0.007163891093565993
5 -0.0014279846264454242 0.0009625455717347934 -0.00010839377377318445
2 -0.004751283021905393 -0.011501955618667518 -0.0032280745529329647
4 -0.010929923364437839 -0.019523982031940446 -0.014992251952342106
8 -0.02205927971818481 -0.022422693537937344 -0.004894828253150659
10 0.011568897557024312 -0.015944224663142503 0.010714685701277938
13 -0.014021632612990498 -0.023158833551218755 0.023828089050667446
9 -0.0067275008894353 0.0018174682832923783 0.003522310984729526
6 -0.005159350437875304 -0.005281918938108316 -0.0008254449045198745
15 0.003729988234097233 -0.003192993960418428 0.010119479464205052
14 -0.014838451199224093 -0.003622844964425702 -0.011018910216392293
16 -0.0022236856356903792 0.0006338595164165095 0.003471704948663057
21 -0.012673330475965448 -0.006860993831559666 -0.015513204700656594
12 0.001530918146137981 -0.002734224442989648 0.017094459605594334
20 -0.016736776780402154 -0.0027320792764878856 -0.016577176276224917
11 0.007330624485490883 -0.0015063729767483187 -0.004207541370100358
19 0.0034658268155157313 0.0030305744053814405 0.003846612331040788
18 0.007404856443585001 0.014996371197928422 0.033386601840610985
17 0.0038053344229166423 -0.0021381890391554666 -0.004188050759418956
22 0.013776270341277182 -0.01604779106048299 -0.017569162871735874

Bonds

1 7 7 8
2 8 7 9
3 1 1 2
4 5 5 6
5 6 5 7
6 2 2 3
7 3 2 4
8 4 2 5
9 9 9 10
10 10 9 11
11 11 9 15
12 15 15 16
13 16 15 17
14 12 11 12
15 13 11 13
16 14 11 14
17 19 19 20
18 20 19 21
19 21 19 22
20 17 17 18
21 18 17 19

Angles

1 9 5 7 8
2 10 5 7 9
3 15 8 7 9
4 4 2 5 6
5 5 2 5 7
6 11 6 5 7
7 1 1 2 3
8 2 1 2 4
9 3 1 2 5
10 6 3 2 4
11 7 3 2 5
12 8 4 2 5
13 12 7 9 10
14 13 7 9 11
15 14 7 9 15
16 21 10 9 11
17 22 10 9 15
18 23 11 9 15
19 19 9 15 16
20 20 9 15 17
21 29 16 15 17
22 16 9 11 12
23 17 9 11 13
24 18 9 11 14
25 24 12 11 13
26 25 12 11 14
27 26 13 11 14
28 30 17 19 20
29 31 17 19 21
30 32 17 19 22
31 34 20 19 21
32 35 20 19 22
33 36 21 19 22
34 27 15 17 18
35 28 15 17 19
36 33 18 17 19

Dihedrals

1 6 2 7 5 6
2 13 5 7 9 10
3 14 5 7 9 11
4 15 5 7 9 11
5 16 5 7 9 11
6 17 5 7 9 15
7 18 5 7 9 15
8 30 8 7 9 10
9 31 8 7 9 11
10 32 8 7 9 15
11 4 2 5 7 8
12 5 2 5 7 9
13 20 6 5 7 8
14 21 6 5 7 8
15 22 6 5 7 9
16 1 1 2 5 6
17 2 1 2 5 6
18 3 1 2 5 7
19 7 3 2 5 6
20 8 3 2 5 6
21 9 3 2 5 7
22 10 4 2 5 6
23 11 4 2 5 6
24 12 4 2 5 7
25 19 5 9 7 8
26 23 7 9 11 12
27 24 7 9 11 13
28 25 7 9 11 14
29 26 7 9 15 16
30 27 7 9 15 17
31 28 7 9 15 17
32 29 7 9 15 17
33 36 10 9 11 12
34 37 10 9 11 13
35 38 10 9 11 14
36 39 10 9 15 16
37 40 10 9 15 16
38 41 10 9 15 17
39 42 11 9 15 16
40 43 11 9 15 17
41 44 11 9 15 17
42 45 11 9 15 17
43 46 15 9 11 12
44 47 15 9 11 13
45 48 15 9 11 14
46 33 9 15 17 18
47 34 9 15 17 19
48 53 16 15 17 18
49 54 16 15 17 18
50 55 16 15 17 19
51 52 15 19 17 18
52 35 9 17 15 16
53 49 15 17 19 20
54 50 15 17 19 21
55 51 15 17 19 22
56 56 18 17 19 20
57 57 18 17 19 21
58 58 18 17 19 22
