LAMMPS data file via write_data, version 23 Jun 2022, timestep = 1000000

22 atoms
7 atom types
21 bonds
21 bond types
36 angles
36 angle types
58 dihedrals
58 dihedral types

-25 25 xlo xhi
-25 25 ylo yhi
-25 25 zlo zhi

Masses

1 1.008
2 12.01
3 12.01
4 16
5 14.01
6 1.008
7 1.008

Atoms # full

3 1 1 0.1123 1.1609944443571094 -0.2524600107325653 -2.5468818771362045 0 0 0
7 2 5 -0.4157 2.9176243734803324 0.8801126321622708 -4.147815938390459 0 0 0
1 1 1 0.1123 0.014261724567668761 0.23818851072588876 -3.842358522909887 0 0 0
5 1 3 0.5972 1.7637076923111072 1.4067787377134622 -3.7729156014873473 0 0 0
2 1 2 -0.3662 0.7068640126798981 0.5412427344405165 -3.1009738129886837 0 0 0
4 1 1 0.1123 0.12328757370129384 1.0309708429339688 -2.437031222082644 0 0 0
8 2 6 0.2719 3.1731098590234215 -0.047612105331051965 -3.829169856442035 0 0 0
10 2 7 0.0823 3.7422739741551267 2.624206986825494 -5.259292678543987 0 0 0
13 2 1 0.0603 5.588688921776826 1.1035026078831562 -3.5719530200752057 0 0 0
9 2 2 0.0337 4.020243523036607 1.574955394828531 -4.903850200247058 0 0 0
6 1 4 -0.5679 1.573822456984167 2.618990301486324 -4.0219741902223385 0 0 0
15 2 3 0.5973000000000001 4.617876346229639 0.6601083351641563 -5.972139834757663 0 0 0
14 2 1 0.0603 5.817581300621558 2.6472844167318876 -4.175081945899374 0 0 0
16 2 4 -0.5679 4.705393142975411 -0.5718344528145408 -5.755891803443484 0 0 0
21 3 7 0.09760000000000001 4.552557746428037 -0.18938287592018554 -8.690325641267961 0 0 0
12 2 1 0.0603 4.588656980348507 2.350071074257417 -2.8954822835394776 0 0 0
20 3 7 0.09760000000000001 6.255920640134666 -0.10023240600072389 -8.142266493508515 0 0 0
11 2 2 -0.1825 5.095406148331186 1.9144710129682807 -3.8510681393224284 0 0 0
19 3 2 -0.149 5.362681582261567 0.48823522764955535 -8.364585668664311 0 0 0
18 3 6 0.2719 4.7978106643377325 2.291881296332032 -7.218489385905755 0 0 0
17 3 5 -0.4157 4.985185326349888 1.2720333827597068 -7.129253369438005 0 0 0
22 3 7 0.09760000000000001 5.675780261996062 1.0959719893098914 -9.092546770328626 0 0 0

Velocities

3 -0.002048214698532725 0.014999547978904532 0.0035774879867050123
7 -0.004141626846158809 -2.11468519073475e-05 0.006058283633144762
1 -0.0008371093615189152 0.01711367076421389 0.0129835974073516
5 -0.0045589848508008615 -0.0073185088378474985 -0.00874583333201623
2 -0.00018385707138873376 0.003890030269490261 -0.005374033183813732
4 0.004567323988695244 0.006041606897173884 -0.008365261978035159
8 0.0044944868408752555 -1.6028732471320105e-06 -0.020204713842154554
10 0.005932675776550461 0.007409746220209953 0.003355328859034449
13 -0.009430721087362585 0.015079363644133752 0.008881788536872484
9 0.003404319413058123 0.006928204013549696 -0.010758389670760496
6 -0.0019382300514034453 -0.003663647829989235 -0.0010708175593079831
15 -0.008438271112388417 0.001815850165394139 0.004845884867566627
14 0.005172840896882792 -0.010447197800279683 0.02237284523727544
16 -0.006300685587399239 -0.0032584543175298657 0.00021350202674576653
21 0.00784949988908623 0.004614682252342111 0.00440209054184178
12 0.00886597902112551 0.01957406493754301 0.028622235485340063
20 -0.005915116579976015 0.0026067476088845972 -0.0017519285091304512
11 -0.008103967308951224 0.002608141855125039 0.0072410540072342855
19 0.003656629180693069 0.002150107813117041 -0.0020881024705019595
18 -0.013689219902642779 0.006070462860903726 0.004820086274525721
17 -0.002149682224954637 0.00411627644285691 -0.00685187642332981
22 0.002747402136834917 0.03474752766360188 -0.026354873712557604

Bonds

1 7 7 8
2 8 7 9
3 1 1 2
4 5 5 6
5 6 5 7
6 2 2 3
7 3 2 4
8 4 2 5
9 9 9 10
10 10 9 11
11 11 9 15
12 15 15 16
13 16 15 17
14 12 11 12
15 13 11 13
16 14 11 14
17 19 19 20
18 20 19 21
19 21 19 22
20 17 17 18
21 18 17 19

Angles

1 9 5 7 8
2 10 5 7 9
3 15 8 7 9
4 4 2 5 6
5 5 2 5 7
6 11 6 5 7
7 1 1 2 3
8 2 1 2 4
9 3 1 2 5
10 6 3 2 4
11 7 3 2 5
12 8 4 2 5
13 12 7 9 10
14 13 7 9 11
15 14 7 9 15
16 21 10 9 11
17 22 10 9 15
18 23 11 9 15
19 19 9 15 16
20 20 9 15 17
21 29 16 15 17
22 16 9 11 12
23 17 9 11 13
24 18 9 11 14
25 24 12 11 13
26 25 12 11 14
27 26 13 11 14
28 30 17 19 20
29 31 17 19 21
30 32 17 19 22
31 34 20 19 21
32 35 20 19 22
33 36 21 19 22
34 27 15 17 18
35 28 15 17 19
36 33 18 17 19

Dihedrals

1 6 2 7 5 6
2 13 5 7 9 10
3 14 5 7 9 11
4 15 5 7 9 11
5 16 5 7 9 11
6 17 5 7 9 15
7 18 5 7 9 15
8 30 8 7 9 10
9 31 8 7 9 11
10 32 8 7 9 15
11 4 2 5 7 8
12 5 2 5 7 9
13 20 6 5 7 8
14 21 6 5 7 8
15 22 6 5 7 9
16 1 1 2 5 6
17 2 1 2 5 6
18 3 1 2 5 7
19 7 3 2 5 6
20 8 3 2 5 6
21 9 3 2 5 7
22 10 4 2 5 6
23 11 4 2 5 6
24 12 4 2 5 7
25 19 5 9 7 8
26 23 7 9 11 12
27 24 7 9 11 13
28 25 7 9 11 14
29 26 7 9 15 16
30 27 7 9 15 17
31 28 7 9 15 17
32 29 7 9 15 17
33 36 10 9 11 12
34 37 10 9 11 13
35 38 10 9 11 14
36 39 10 9 15 16
37 40 10 9 15 16
38 41 10 9 15 17
39 42 11 9 15 16
40 43 11 9 15 17
41 44 11 9 15 17
42 45 11 9 15 17
43 46 15 9 11 12
44 47 15 9 11 13
45 48 15 9 11 14
46 33 9 15 17 18
47 34 9 15 17 19
48 53 16 15 17 18
49 54 16 15 17 18
50 55 16 15 17 19
51 52 15 19 17 18
52 35 9 17 15 16
53 49 15 17 19 20
54 50 15 17 19 21
55 51 15 17 19 22
56 56 18 17 19 20
57 57 18 17 19 21
58 58 18 17 19 22
