LAMMPS data file via write_data, version 23 Jun 2022, timestep = 1000000

22 atoms
7 atom types
21 bonds
21 bond types
36 angles
36 angle types
58 dihedrals
58 dihedral types

-25 25 xlo xhi
-25 25 ylo yhi
-25 25 zlo zhi

Masses

1 1.008
2 12.01
3 12.01
4 16
5 14.01
6 1.008
7 1.008

Atoms # full

3 1 1 0.1123 1.1747022770068076 -0.2639884217724498 -2.60043441897351 0 0 0
7 2 5 -0.4157 2.994032607960124 0.9140995432187293 -4.176515149021277 0 0 0
1 1 1 0.1123 0.24603414465341145 0.1597181001084746 -3.9720267417734036 0 0 0
5 1 3 0.5972 1.8308569714216485 1.4698089620313635 -3.7377192887812565 0 0 0
2 1 2 -0.3662 0.7406079578080632 0.5496783217640281 -3.144798441984491 0 0 0
4 1 1 0.1123 -0.02762462070057592 1.0447405909092402 -2.6254965217610793 0 0 0
8 2 6 0.2719 3.0325244222672234 -0.021030046310208748 -4.0224128013540055 0 0 0
10 2 7 0.0823 3.8412717082271537 2.5644793625791045 -5.368686252132864 0 0 0
13 2 1 0.0603 5.762830269252714 1.1781039726337643 -3.6228254851654857 0 0 0
9 2 2 0.0337 4.118052156956254 1.6390707149310204 -4.8543254064734835 0 0 0
6 1 4 -0.5679 1.5509171539354207 2.6966249479158915 -3.955725290797503 0 0 0
15 2 3 0.5973000000000001 4.719297970081912 0.7007989068533016 -5.9891704368479015 0 0 0
14 2 1 0.0603 5.777914662477555 2.7867008361884653 -3.957769034165667 0 0 0
16 2 4 -0.5679 4.788294900389882 -0.5373913344479045 -5.871677646891503 0 0 0
21 3 7 0.09760000000000001 4.429387434961159 0.8693770488431415 -8.982558171366959 0 0 0
12 2 1 0.0603 4.647133753262947 2.1719440747554346 -2.82366316553461 0 0 0
20 3 7 0.09760000000000001 5.655497444712226 -0.27274991389377184 -8.275228702115184 0 0 0
11 2 2 -0.1825 5.131232864836165 1.936396681544131 -3.7752066226465892 0 0 0
19 3 2 -0.149 5.333395573855958 0.7737475509056336 -8.365117486205023 0 0 0
18 3 6 0.2719 5.255936273255261 2.450932297904404 -7.055619014491695 0 0 0
17 3 5 -0.4157 5.117186973530364 1.3729758045854112 -7.068579706379929 0 0 0
22 3 7 0.09760000000000001 6.197158307083588 1.2945690010483417 -8.852045859728923 0 0 0

Velocities

3 0.0030637324575713753 -0.007580689307461733 0.002483545797997786
7 0.006704685007399742 -0.0036554046848967397 -2.3202862052773185e-05
1 -0.01667436432135677 -0.002566107659136655 -0.025381674771466474
5 0.0006749132679870445 -0.008541096255975614 -0.004093531986644563
2 -0.0010163683689430503 -0.004117289448645809 0.00044713076491826004
4 0.0002769003375544879 -0.004316737034166553 -0.012952609623097881
8 0.021236845258205288 0.014596139139619506 -0.008629517472154687
10 0.008645575359592716 0.006709688061803679 0.0027513808218414095
13 -0.004397459842537427 -0.012924292172215742 0.016208481827436935
9 0.0006371170221772715 0.004820672800181173 0.0010527359865202149
6 0.0020150868268420936 -0.00011204593574835257 0.0030311894716151294
15 -0.003525080586287675 -0.00946473431664465 -0.003063342349326149
14 0.009102478813496179 -0.038811045621050526 0.021853919032730026
16 0.003104760389466688 0.00237249529241709 0.00011952894087464229
21 -0.01821982055396302 0.014197845279889265 0.004263585076534277
12 -0.0026883921644975605 0.022925636164801744 0.014262777928855056
20 -0.01921683681392708 -0.006969701406128072 -0.03518817259754248
11 -0.0008537947293749843 -0.0074809132010581715 0.003921842778969797
19 0.0003895122436503866 0.0025638578776832214 -0.0005965859612652207
18 0.03188424826696161 -0.028986927921970045 -0.02313162026179907
17 0.0011874299708374521 0.0001660558821213467 -0.002442727687552521
22 -0.0242812957377544 0.00011284107950530438 -0.014422950079971051

Bonds

1 7 7 8
2 8 7 9
3 1 1 2
4 5 5 6
5 6 5 7
6 2 2 3
7 3 2 4
8 4 2 5
9 9 9 10
10 10 9 11
11 11 9 15
12 15 15 16
13 16 15 17
14 12 11 12
15 13 11 13
16 14 11 14
17 19 19 20
18 20 19 21
19 21 19 22
20 17 17 18
21 18 17 19

Angles

1 9 5 7 8
2 10 5 7 9
3 15 8 7 9
4 4 2 5 6
5 5 2 5 7
6 11 6 5 7
7 1 1 2 3
8 2 1 2 4
9 3 1 2 5
10 6 3 2 4
11 7 3 2 5
12 8 4 2 5
13 12 7 9 10
14 13 7 9 11
15 14 7 9 15
16 21 10 9 11
17 22 10 9 15
18 23 11 9 15
19 19 9 15 16
20 20 9 15 17
21 29 16 15 17
22 16 9 11 12
23 17 9 11 13
24 18 9 11 14
25 24 12 11 13
26 25 12 11 14
27 26 13 11 14
28 30 17 19 20
29 31 17 19 21
30 32 17 19 22
31 34 20 19 21
32 35 20 19 22
33 36 21 19 22
34 27 15 17 18
35 28 15 17 19
36 33 18 17 19

Dihedrals

1 6 2 7 5 6
2 13 5 7 9 10
3 14 5 7 9 11
4 15 5 7 9 11
5 16 5 7 9 11
6 17 5 7 9 15
7 18 5 7 9 15
8 30 8 7 9 10
9 31 8 7 9 11
10 32 8 7 9 15
11 4 2 5 7 8
12 5 2 5 7 9
13 20 6 5 7 8
14 21 6 5 7 8
15 22 6 5 7 9
16 1 1 2 5 6
17 2 1 2 5 6
18 3 1 2 5 7
19 7 3 2 5 6
20 8 3 2 5 6
21 9 3 2 5 7
22 10 4 2 5 6
23 11 4 2 5 6
24 12 4 2 5 7
25 19 5 9 7 8
26 23 7 9 11 12
27 24 7 9 11 13
28 25 7 9 11 14
29 26 7 9 15 16
30 27 7 9 15 17
31 28 7 9 15 17
32 29 7 9 15 17
33 36 10 9 11 12
34 37 10 9 11 13
35 38 10 9 11 14
36 39 10 9 15 16
37 40 10 9 15 16
38 41 10 9 15 17
39 42 11 9 15 16
40 43 11 9 15 17
41 44 11 9 15 17
42 45 11 9 15 17
43 46 15 9 11 12
44 47 15 9 11 13
45 48 15 9 11 14
46 33 9 15 17 18
47 34 9 15 17 19
48 53 16 15 17 18
49 54 16 15 17 18
50 55 16 15 17 19
51 52 15 19 17 18
52 35 9 17 15 16
53 49 15 17 19 20
54 50 15 17 19 21
55 51 15 17 19 22
56 56 18 17 19 20
57 57 18 17 19 21
58 58 18 17 19 22
