LAMMPS data file via write_data, version 23 Jun 2022, timestep = 1000000

22 atoms
7 atom types
21 bonds
21 bond types
36 angles
36 angle types
58 dihedrals
58 dihedral types

-25 25 xlo xhi
-25 25 ylo yhi
-25 25 zlo zhi

Masses

1 1.008
2 12.01
3 12.01
4 16
5 14.01
6 1.008
7 1.008

Atoms # full

3 1 1 0.1123 1.2441974042569004 -0.3308860939952013 -2.7591429004793024 0 0 0
7 2 5 -0.4157 2.957810066317993 0.8521812687968803 -4.202289983730428 0 0 0
1 1 1 0.1123 0.08495970473168074 0.35744573783172606 -3.890134580145995 0 0 0
5 1 3 0.5972 1.8360657713956217 1.4657815289945788 -3.740535525591675 0 0 0
2 1 2 -0.3662 0.743616086770447 0.5688925907505328 -3.1533576437707196 0 0 0
4 1 1 0.1123 0.2216648126459761 1.004349257002345 -2.289874897112663 0 0 0
8 2 6 0.2719 3.1110950540691773 -0.12197764374258321 -4.134656933017723 0 0 0
10 2 7 0.0823 3.646387080121357 2.402963052993 -5.394257864806695 0 0 0
13 2 1 0.0603 5.613084694944535 1.046498814954185 -3.393513088545195 0 0 0
9 2 2 0.0337 4.050046401537079 1.5636207969616611 -4.904579695678213 0 0 0
6 1 4 -0.5679 1.5988193341097592 2.6390029720431767 -4.049493137143942 0 0 0
15 2 3 0.5973000000000001 4.642185134882929 0.6131294011618914 -5.978408885384116 0 0 0
14 2 1 0.0603 5.887321933258108 2.5892173531531326 -4.222599970394236 0 0 0
16 2 4 -0.5679 4.634326684303927 -0.6294132180541251 -5.8000049364862685 0 0 0
21 3 7 0.09760000000000001 4.464505455007048 -0.06687232124555717 -8.755107410128396 0 0 0
12 2 1 0.0603 4.659638556492126 2.5503872237580936 -3.0816208850472107 0 0 0
20 3 7 0.09760000000000001 6.146092199248485 -0.18302428604606602 -8.155582176971057 0 0 0
11 2 2 -0.1825 5.058191902850356 1.9580161712163324 -3.8606038536079166 0 0 0
19 3 2 -0.149 5.378227502546727 0.4640150198761798 -8.38479757232895 0 0 0
18 3 6 0.2719 4.853301714771984 2.139213428135455 -7.176161158012099 0 0 0
17 3 5 -0.4157 5.012420211726075 1.2050640859238109 -7.100563702205623 0 0 0
22 3 7 0.09760000000000001 5.7585341538393315 1.1711809297538471 -9.116254566739066 0 0 0

Velocities

3 0.0048790845718455905 -0.0074630074982660905 0.003374683272717934
7 -0.0021026543352878806 -0.00033009211526346884 -0.0005582825291671647
1 -0.011383501392222014 -0.0027237625150625406 0.02071660767710094
5 0.0003094479687399406 0.0036042202572668038 -0.005138987249361927
2 0.003874340861544242 -0.0011422032469353036 0.002428957188234367
4 -0.0009043869206525616 -0.005329412288183269 0.006026889239364358
8 0.000913028669977677 0.010362869911079577 0.0027500234056777144
10 -0.009879391850176776 -0.0041668721351870485 0.01828730049957572
13 0.005215901627200394 -0.001983071211579331 0.02995463056050711
9 -0.0015051813171813632 -0.00544929814358959 -0.0018094360098168973
6 0.0005354051075422852 -0.0004409555668757782 0.0013609186783262602
15 -0.001280595533189785 0.001485535344189931 -0.0024731242628741675
14 0.006623388104937353 -0.011167088942087825 -0.015178862256574064
16 -0.0036076051320978178 0.00030469622844454087 -0.0005710586784243516
21 -0.005702478298973888 0.022653442936430297 0.007068373958614223
12 -0.0215380629417518 -0.036135695200515607 -0.023054975964062936
20 -0.014805210814313761 -0.006138432977484227 0.0030119656152277127
11 0.0022382479539050882 0.0017993374913961124 0.0019398566681618965
19 0.0028970569879214992 0.005209652206344035 -0.0023001493815712924
18 0.0060232763728111805 0.0075926317554020056 0.007357225330694899
17 0.007026931466929788 0.0050011792887339705 -0.004901166904242103
22 -0.014017852992374723 0.014281535052013745 0.012712793722442233

Bonds

1 7 7 8
2 8 7 9
3 1 1 2
4 5 5 6
5 6 5 7
6 2 2 3
7 3 2 4
8 4 2 5
9 9 9 10
10 10 9 11
11 11 9 15
12 15 15 16
13 16 15 17
14 12 11 12
15 13 11 13
16 14 11 14
17 19 19 20
18 20 19 21
19 21 19 22
20 17 17 18
21 18 17 19

Angles

1 9 5 7 8
2 10 5 7 9
3 15 8 7 9
4 4 2 5 6
5 5 2 5 7
6 11 6 5 7
7 1 1 2 3
8 2 1 2 4
9 3 1 2 5
10 6 3 2 4
11 7 3 2 5
12 8 4 2 5
13 12 7 9 10
14 13 7 9 11
15 14 7 9 15
16 21 10 9 11
17 22 10 9 15
18 23 11 9 15
19 19 9 15 16
20 20 9 15 17
21 29 16 15 17
22 16 9 11 12
23 17 9 11 13
24 18 9 11 14
25 24 12 11 13
26 25 12 11 14
27 26 13 11 14
28 30 17 19 20
29 31 17 19 21
30 32 17 19 22
31 34 20 19 21
32 35 20 19 22
33 36 21 19 22
34 27 15 17 18
35 28 15 17 19
36 33 18 17 19

Dihedrals

1 6 2 7 5 6
2 13 5 7 9 10
3 14 5 7 9 11
4 15 5 7 9 11
5 16 5 7 9 11
6 17 5 7 9 15
7 18 5 7 9 15
8 30 8 7 9 10
9 31 8 7 9 11
10 32 8 7 9 15
11 4 2 5 7 8
12 5 2 5 7 9
13 20 6 5 7 8
14 21 6 5 7 8
15 22 6 5 7 9
16 1 1 2 5 6
17 2 1 2 5 6
18 3 1 2 5 7
19 7 3 2 5 6
20 8 3 2 5 6
21 9 3 2 5 7
22 10 4 2 5 6
23 11 4 2 5 6
24 12 4 2 5 7
25 19 5 9 7 8
26 23 7 9 11 12
27 24 7 9 11 13
28 25 7 9 11 14
29 26 7 9 15 16
30 27 7 9 15 17
31 28 7 9 15 17
32 29 7 9 15 17
33 36 10 9 11 12
34 37 10 9 11 13
35 38 10 9 11 14
36 39 10 9 15 16
37 40 10 9 15 16
38 41 10 9 15 17
39 42 11 9 15 16
40 43 11 9 15 17
41 44 11 9 15 17
42 45 11 9 15 17
43 46 15 9 11 12
44 47 15 9 11 13
45 48 15 9 11 14
46 33 9 15 17 18
47 34 9 15 17 19
48 53 16 15 17 18
49 54 16 15 17 18
50 55 16 15 17 19
51 52 15 19 17 18
52 35 9 17 15 16
53 49 15 17 19 20
54 50 15 17 19 21
55 51 15 17 19 22
56 56 18 17 19 20
57 57 18 17 19 21
58 58 18 17 19 22
