LAMMPS data file via write_data, version 23 Jun 2022, timestep = 1000000

22 atoms
7 atom types
21 bonds
21 bond types
36 angles
36 angle types
58 dihedrals
58 dihedral types

-25 25 xlo xhi
-25 25 ylo yhi
-25 25 zlo zhi

Masses

1 1.008
2 12.01
3 12.01
4 16
5 14.01
6 1.008
7 1.008

Atoms # full

3 1 1 0.1123 1.1783845003255182 -0.31291603309873717 -2.719870265580135 0 0 0
7 2 5 -0.4157 2.9709202404572936 0.8314815387132427 -4.186933008836697 0 0 0
1 1 1 0.1123 -0.10026057572884502 0.2284724385900031 -3.80692218414934 0 0 0
5 1 3 0.5972 1.8256921621679012 1.497434352643951 -3.7244180726074503 0 0 0
2 1 2 -0.3662 0.751946081854929 0.5646524440655583 -3.1225823796406322 0 0 0
4 1 1 0.1123 0.15816488365855355 1.151092134069769 -2.394600375714336 0 0 0
8 2 6 0.2719 3.045930994055099 -0.17117647777615044 -4.0458889258520445 0 0 0
10 2 7 0.0823 3.5966878309517964 2.3845592843500407 -5.429255802385442 0 0 0
13 2 1 0.0603 5.2938949367221095 1.0642865102654566 -3.330855827995187 0 0 0
9 2 2 0.0337 4.089872785543688 1.5393074448533821 -4.907722201518174 0 0 0
6 1 4 -0.5679 1.596534762685698 2.6183713014775076 -4.0283439321041055 0 0 0
15 2 3 0.5973000000000001 4.621846824700945 0.6009051024820766 -5.951388028004232 0 0 0
14 2 1 0.0603 5.933764111327716 2.61408124237219 -4.207559402122522 0 0 0
16 2 4 -0.5679 4.652939208141148 -0.618147432114364 -5.78917385854658 0 0 0
21 3 7 0.09760000000000001 4.545584205975949 -0.01542262656882988 -8.767945257729949 0 0 0
12 2 1 0.0603 4.593312086839426 2.7987876971262735 -3.177971969263113 0 0 0
20 3 7 0.09760000000000001 6.174155080716559 -0.332759090905799 -8.095347199311242 0 0 0
11 2 2 -0.1825 5.0543275715374225 2.011169424379547 -3.8390703436416107 0 0 0
19 3 2 -0.149 5.38157694561277 0.46295267000379675 -8.309609342062783 0 0 0
18 3 6 0.2719 4.962453666193573 2.215352791821317 -7.096707940588738 0 0 0
17 3 5 -0.4157 4.979689695265272 1.2003418697967683 -7.099887426700008 0 0 0
22 3 7 0.09760000000000001 5.726887713565112 1.1881082031450643 -9.0724624518775 0 0 0

Velocities

3 0.020508582109706158 0.012775078817811907 -0.003199118869193116
7 -0.0011158004821393702 0.0025593795040463473 0.0033322316896441935
1 0.0018491891340906537 0.0035558805432329425 0.0202451700736031
5 -0.005913787188140298 -0.004498177362170374 0.006276688424336454
2 0.0007403423193362616 0.0011908551794351417 0.008652493359785515
4 -0.007379524000566864 0.02135704797077829 -0.0015565132899709845
8 0.008884479332237207 -0.023346052602763748 -0.025956793196259716
10 0.009103735067987034 -0.025781471092896358 0.01330981193915428
13 -0.0022917332873487956 -0.030710141870816998 0.0020293699525796446
9 0.004746160030225036 0.0034219281769795463 -0.003971920727108624
6 -0.005696453580148766 -0.004034241740419786 -0.007444633626723518
15 0.009733052398768432 -0.0015119698926389473 0.0057847213549403875
14 -0.007402003798485933 -0.002493223842693789 0.031280028041367126
16 -0.0021076490205603877 -0.00011953665341626581 -0.004549461759081129
21 0.00474336549061023 -0.002905289785358644 -0.0025081419604787354
12 -0.007360319163577771 0.006502019808971335 -0.004015028647724193
20 -0.020917743973916263 -0.003352126857110671 -0.027056231640097756
11 0.0005622689336539945 0.0010568133279485773 -0.005246204346608321
19 -0.0023338175793223646 0.0012804374312000769 -0.0059221148369987524
18 -0.00022136782068044774 0.0008808392540061247 -0.0285679611018587
17 -0.0024658230366383 -0.007119893140613583 -0.0013203056002728994
22 -0.013548797334385031 -0.0038684905929536805 0.006129600363734429

Bonds

1 7 7 8
2 8 7 9
3 1 1 2
4 5 5 6
5 6 5 7
6 2 2 3
7 3 2 4
8 4 2 5
9 9 9 10
10 10 9 11
11 11 9 15
12 15 15 16
13 16 15 17
14 12 11 12
15 13 11 13
16 14 11 14
17 19 19 20
18 20 19 21
19 21 19 22
20 17 17 18
21 18 17 19

Angles

1 9 5 7 8
2 10 5 7 9
3 15 8 7 9
4 4 2 5 6
5 5 2 5 7
6 11 6 5 7
7 1 1 2 3
8 2 1 2 4
9 3 1 2 5
10 6 3 2 4
11 7 3 2 5
12 8 4 2 5
13 12 7 9 10
14 13 7 9 11
15 14 7 9 15
16 21 10 9 11
17 22 10 9 15
18 23 11 9 15
19 19 9 15 16
20 20 9 15 17
21 29 16 15 17
22 16 9 11 12
23 17 9 11 13
24 18 9 11 14
25 24 12 11 13
26 25 12 11 14
27 26 13 11 14
28 30 17 19 20
29 31 17 19 21
30 32 17 19 22
31 34 20 19 21
32 35 20 19 22
33 36 21 19 22
34 27 15 17 18
35 28 15 17 19
36 33 18 17 19

Dihedrals

1 6 2 7 5 6
2 13 5 7 9 10
3 14 5 7 9 11
4 15 5 7 9 11
5 16 5 7 9 11
6 17 5 7 9 15
7 18 5 7 9 15
8 30 8 7 9 10
9 31 8 7 9 11
10 32 8 7 9 15
11 4 2 5 7 8
12 5 2 5 7 9
13 20 6 5 7 8
14 21 6 5 7 8
15 22 6 5 7 9
16 1 1 2 5 6
17 2 1 2 5 6
18 3 1 2 5 7
19 7 3 2 5 6
20 8 3 2 5 6
21 9 3 2 5 7
22 10 4 2 5 6
23 11 4 2 5 6
24 12 4 2 5 7
25 19 5 9 7 8
26 23 7 9 11 12
27 24 7 9 11 13
28 25 7 9 11 14
29 26 7 9 15 16
30 27 7 9 15 17
31 28 7 9 15 17
32 29 7 9 15 17
33 36 10 9 11 12
34 37 10 9 11 13
35 38 10 9 11 14
36 39 10 9 15 16
37 40 10 9 15 16
38 41 10 9 15 17
39 42 11 9 15 16
40 43 11 9 15 17
41 44 11 9 15 17
42 45 11 9 15 17
43 46 15 9 11 12
44 47 15 9 11 13
45 48 15 9 11 14
46 33 9 15 17 18
47 34 9 15 17 19
48 53 16 15 17 18
49 54 16 15 17 18
50 55 16 15 17 19
51 52 15 19 17 18
52 35 9 17 15 16
53 49 15 17 19 20
54 50 15 17 19 21
55 51 15 17 19 22
56 56 18 17 19 20
57 57 18 17 19 21
58 58 18 17 19 22
