LAMMPS data file via write_data, version 23 Jun 2022, timestep = 1000000

22 atoms
7 atom types
21 bonds
21 bond types
36 angles
36 angle types
58 dihedrals
58 dihedral types

-25 25 xlo xhi
-25 25 ylo yhi
-25 25 zlo zhi

Masses

1 1.008
2 12.01
3 12.01
4 16
5 14.01
6 1.008
7 1.008

Atoms # full

3 1 1 0.1123 1.1821688487228785 -0.18011733036353697 -2.633003262998108 0 0 0
7 2 5 -0.4157 2.9148166403719413 0.87844860766389 -4.15908125655309 0 0 0
1 1 1 0.1123 0.03685260747524019 0.07883911563684746 -3.8581706414801613 0 0 0
5 1 3 0.5972 1.7859244263665364 1.4373256429406915 -3.7698890804369354 0 0 0
2 1 2 -0.3662 0.6974835328017753 0.5391533830798338 -3.1144533528442384 0 0 0
4 1 1 0.1123 0.12937460132779982 1.1092912463054587 -2.3924382792864 0 0 0
8 2 6 0.2719 3.124805043497385 -0.11011126925398977 -3.8923818836089166 0 0 0
10 2 7 0.0823 3.6755939714670487 2.5494704023487453 -5.370413089558343 0 0 0
13 2 1 0.0603 5.696704215025139 1.0139378618429031 -3.5579712159404804 0 0 0
9 2 2 0.0337 4.001038207856671 1.59035087483097 -4.886905010573382 0 0 0
6 1 4 -0.5679 1.6088898540202914 2.646749967619272 -4.044729293339758 0 0 0
15 2 3 0.5973000000000001 4.607525454994323 0.6618325239148769 -5.99156953419801 0 0 0
14 2 1 0.0603 5.859148295467125 2.5976783974745037 -4.091474425912189 0 0 0
16 2 4 -0.5679 4.682172049106788 -0.5283570763913801 -5.761119787469018 0 0 0
21 3 7 0.09760000000000001 4.592144274316256 -0.11415278680961452 -8.64470719816059 0 0 0
12 2 1 0.0603 4.682792270853751 2.3591036113880226 -2.975831021978111 0 0 0
20 3 7 0.09760000000000001 6.212523869594074 -0.16061008970175178 -8.120932744391592 0 0 0
11 2 2 -0.1825 5.093109889500566 1.9422367966516276 -3.8389042853512496 0 0 0
19 3 2 -0.149 5.364440820044505 0.5010620654369525 -8.375003582607867 0 0 0
18 3 6 0.2719 4.801797573076408 2.247217222202357 -7.321061685497876 0 0 0
17 3 5 -0.4157 4.984432012540362 1.2808892883247416 -7.1370248617488485 0 0 0
22 3 7 0.09760000000000001 5.612411632918276 1.1183657239155553 -9.228805992948425 0 0 0

Velocities

3 0.008327335735948158 -0.00741137082674462 0.0016305776138409323
7 -0.008216031578654118 -0.003027025258383044 0.00251370827664715
1 0.025922481983170327 0.0032562083957130717 0.011766949095856925
5 0.004004080506076798 0.002440116602996381 -0.0026443166563838213
2 -0.00377698471082617 -0.0005967906093910303 0.003264443783684511
4 -0.025113123788470002 0.020752681945394334 0.0202993848015574
8 0.006948147987021292 -0.030912220982653525 -0.0036383122319416194
10 -0.002966819924161588 -0.008013722844475983 -0.012176809120380945
13 -0.008413091562018592 0.00664800718292507 0.012664888813444252
9 0.0017723869302860367 0.007107868694717821 0.0013356522030317025
6 0.00030413977892877167 0.0027152155380806807 0.009887966311177313
15 0.0033542656327134445 0.0006333164200958701 -0.0040289883338005305
14 0.010997604916186718 -0.009862638512107624 -0.0006993294454029364
16 0.0033514429622151427 0.007244042390661009 0.0032945879777156275
21 0.001676350151954352 -0.00513031549471003 0.009765158686137487
12 -0.046891738071253915 -0.01400594612869132 0.033647354203806185
20 0.008953009183249152 0.011371435564775078 0.0047377481088869446
11 0.003267899359084241 -0.0029871966872832513 -0.006046905632034951
19 0.0008244618020843321 0.0023397150152510583 0.00047372758383487293
18 -0.002515329599753156 -0.01971454552034668 -0.002765947329898601
17 -0.006917539503729642 -0.005523400618981273 -0.00203533004053274
22 0.0122536856745861 -0.00535127964427481 -0.008379846737238798

Bonds

1 7 7 8
2 8 7 9
3 1 1 2
4 5 5 6
5 6 5 7
6 2 2 3
7 3 2 4
8 4 2 5
9 9 9 10
10 10 9 11
11 11 9 15
12 15 15 16
13 16 15 17
14 12 11 12
15 13 11 13
16 14 11 14
17 19 19 20
18 20 19 21
19 21 19 22
20 17 17 18
21 18 17 19

Angles

1 9 5 7 8
2 10 5 7 9
3 15 8 7 9
4 4 2 5 6
5 5 2 5 7
6 11 6 5 7
7 1 1 2 3
8 2 1 2 4
9 3 1 2 5
10 6 3 2 4
11 7 3 2 5
12 8 4 2 5
13 12 7 9 10
14 13 7 9 11
15 14 7 9 15
16 21 10 9 11
17 22 10 9 15
18 23 11 9 15
19 19 9 15 16
20 20 9 15 17
21 29 16 15 17
22 16 9 11 12
23 17 9 11 13
24 18 9 11 14
25 24 12 11 13
26 25 12 11 14
27 26 13 11 14
28 30 17 19 20
29 31 17 19 21
30 32 17 19 22
31 34 20 19 21
32 35 20 19 22
33 36 21 19 22
34 27 15 17 18
35 28 15 17 19
36 33 18 17 19

Dihedrals

1 6 2 7 5 6
2 13 5 7 9 10
3 14 5 7 9 11
4 15 5 7 9 11
5 16 5 7 9 11
6 17 5 7 9 15
7 18 5 7 9 15
8 30 8 7 9 10
9 31 8 7 9 11
10 32 8 7 9 15
11 4 2 5 7 8
12 5 2 5 7 9
13 20 6 5 7 8
14 21 6 5 7 8
15 22 6 5 7 9
16 1 1 2 5 6
17 2 1 2 5 6
18 3 1 2 5 7
19 7 3 2 5 6
20 8 3 2 5 6
21 9 3 2 5 7
22 10 4 2 5 6
23 11 4 2 5 6
24 12 4 2 5 7
25 19 5 9 7 8
26 23 7 9 11 12
27 24 7 9 11 13
28 25 7 9 11 14
29 26 7 9 15 16
30 27 7 9 15 17
31 28 7 9 15 17
32 29 7 9 15 17
33 36 10 9 11 12
34 37 10 9 11 13
35 38 10 9 11 14
36 39 10 9 15 16
37 40 10 9 15 16
38 41 10 9 15 17
39 42 11 9 15 16
40 43 11 9 15 17
41 44 11 9 15 17
42 45 11 9 15 17
43 46 15 9 11 12
44 47 15 9 11 13
45 48 15 9 11 14
46 33 9 15 17 18
47 34 9 15 17 19
48 53 16 15 17 18
49 54 16 15 17 18
50 55 16 15 17 19
51 52 15 19 17 18
52 35 9 17 15 16
53 49 15 17 19 20
54 50 15 17 19 21
55 51 15 17 19 22
56 56 18 17 19 20
57 57 18 17 19 21
58 58 18 17 19 22
