LAMMPS data file via write_data, version 23 Jun 2022, timestep = 1000000

22 atoms
7 atom types
21 bonds
21 bond types
36 angles
36 angle types
58 dihedrals
58 dihedral types

-25 25 xlo xhi
-25 25 ylo yhi
-25 25 zlo zhi

Masses

1 1.008
2 12.01
3 12.01
4 16
5 14.01
6 1.008
7 1.008

Atoms # full

3 1 1 0.1123 1.3214160950091351 -0.22675430879032596 -2.5886609789671713 0 0 0
7 2 5 -0.4157 2.9497246463263402 0.8142552831319179 -4.252441933760836 0 0 0
1 1 1 0.1123 -0.0022554021739430302 0.20642812401566732 -3.872225469966132 0 0 0
5 1 3 0.5972 1.8458659423391384 1.470224585574906 -3.788975380146332 0 0 0
2 1 2 -0.3662 0.8249285157069894 0.5897430563315627 -3.0695284514737518 0 0 0
4 1 1 0.1123 0.3829491124135306 1.0682350231558522 -2.2459398445240333 0 0 0
8 2 6 0.2719 3.0570110420527374 -0.2086587686991964 -4.058529010229721 0 0 0
10 2 7 0.0823 3.729569238728649 2.3629954590763425 -5.3446100128401195 0 0 0
13 2 1 0.0603 5.1750498200049595 1.1472214609243823 -3.145589226584371 0 0 0
9 2 2 0.0337 4.065937604788875 1.5093827380346485 -4.887080380127765 0 0 0
6 1 4 -0.5679 1.5977562317503349 2.6296377715232224 -4.0334933219900755 0 0 0
15 2 3 0.5973000000000001 4.611305697584078 0.5883662503372071 -5.973806739522008 0 0 0
14 2 1 0.0603 6.0332120527852835 2.3893033539084154 -4.189203430404931 0 0 0
16 2 4 -0.5679 4.691323216365918 -0.655598855922357 -5.7855270448029135 0 0 0
21 3 7 0.09760000000000001 4.847442189097196 -0.17640038754032075 -8.84633393028939 0 0 0
12 2 1 0.0603 4.577425308050096 2.761856798650992 -3.249257365723899 0 0 0
20 3 7 0.09760000000000001 6.2037792970576024 -0.23189781397838005 -8.039395324533944 0 0 0
11 2 2 -0.1825 5.086917839366019 2.0001139063202813 -3.8440907859945264 0 0 0
19 3 2 -0.149 5.466256093790823 0.41823808157392806 -8.29074158078178 0 0 0
18 3 6 0.2719 4.870578404972209 2.1627854101094774 -7.173897625245637 0 0 0
17 3 5 -0.4157 4.9758471678605565 1.1162126154961023 -7.11615701037434 0 0 0
22 3 7 0.09760000000000001 5.972604564722564 1.122554764674046 -8.87802554778957 0 0 0

Velocities

3 0.003966184791082656 -0.012435760584242193 -0.024605078835168447
7 -0.0015457630376351456 0.010252258681672951 0.0023176221628739596
1 -0.024798812713914428 0.006126012773485122 0.01868657728040684
5 0.005974206767435081 0.00329494768230226 -0.0034895185552005865
2 -0.001626933005391211 0.00044426346225897657 -0.007343869363369369
4 0.00697728069743733 0.006205260212574946 0.017129768941562852
8 -0.005474219591195378 0.014377954569143554 -0.013710715982760512
10 0.02531479479208358 0.034433360610357545 -0.005717648202491847
13 0.017790607087737245 -0.015415977033993456 0.012200370870857246
9 0.0013801649765565938 -0.002413504191801803 0.00472037647470184
6 -0.0017769827762562328 0.003692635302051239 0.002209950347022562
15 0.0005966085391442059 0.0010237437351550364 -0.0001421743435422126
14 -0.019663073974837526 0.021990719708802824 -0.0019152039432185446
16 -0.0009383098833306417 0.004162431238284891 -0.0003168991450635282
21 -0.010161929437070463 0.0001984066916105481 0.0076659805342565454
12 -0.002715758823033651 -0.02560962014774038 0.01903260134234599
20 0.021613366387323377 0.021112013131224856 0.0030646425885526435
11 0.00022628741720002402 -0.001953897611618108 0.009529227876835829
19 0.0006931622205386258 -0.0005348167697701754 0.005745255205426549
18 -0.02345379697617561 -0.018815085544444565 0.0114273747444552
17 0.0015494830869724457 -3.08906602174958e-05 -0.0003037135956267357
22 0.00651623918757232 0.008541732993874711 -0.006843919987825236

Bonds

1 7 7 8
2 8 7 9
3 1 1 2
4 5 5 6
5 6 5 7
6 2 2 3
7 3 2 4
8 4 2 5
9 9 9 10
10 10 9 11
11 11 9 15
12 15 15 16
13 16 15 17
14 12 11 12
15 13 11 13
16 14 11 14
17 19 19 20
18 20 19 21
19 21 19 22
20 17 17 18
21 18 17 19

Angles

1 9 5 7 8
2 10 5 7 9
3 15 8 7 9
4 4 2 5 6
5 5 2 5 7
6 11 6 5 7
7 1 1 2 3
8 2 1 2 4
9 3 1 2 5
10 6 3 2 4
11 7 3 2 5
12 8 4 2 5
13 12 7 9 10
14 13 7 9 11
15 14 7 9 15
16 21 10 9 11
17 22 10 9 15
18 23 11 9 15
19 19 9 15 16
20 20 9 15 17
21 29 16 15 17
22 16 9 11 12
23 17 9 11 13
24 18 9 11 14
25 24 12 11 13
26 25 12 11 14
27 26 13 11 14
28 30 17 19 20
29 31 17 19 21
30 32 17 19 22
31 34 20 19 21
32 35 20 19 22
33 36 21 19 22
34 27 15 17 18
35 28 15 17 19
36 33 18 17 19

Dihedrals

1 6 2 7 5 6
2 13 5 7 9 10
3 14 5 7 9 11
4 15 5 7 9 11
5 16 5 7 9 11
6 17 5 7 9 15
7 18 5 7 9 15
8 30 8 7 9 10
9 31 8 7 9 11
10 32 8 7 9 15
11 4 2 5 7 8
12 5 2 5 7 9
13 20 6 5 7 8
14 21 6 5 7 8
15 22 6 5 7 9
16 1 1 2 5 6
17 2 1 2 5 6
18 3 1 2 5 7
19 7 3 2 5 6
20 8 3 2 5 6
21 9 3 2 5 7
22 10 4 2 5 6
23 11 4 2 5 6
24 12 4 2 5 7
25 19 5 9 7 8
26 23 7 9 11 12
27 24 7 9 11 13
28 25 7 9 11 14
29 26 7 9 15 16
30 27 7 9 15 17
31 28 7 9 15 17
32 29 7 9 15 17
33 36 10 9 11 12
34 37 10 9 11 13
35 38 10 9 11 14
36 39 10 9 15 16
37 40 10 9 15 16
38 41 10 9 15 17
39 42 11 9 15 16
40 43 11 9 15 17
41 44 11 9 15 17
42 45 11 9 15 17
43 46 15 9 11 12
44 47 15 9 11 13
45 48 15 9 11 14
46 33 9 15 17 18
47 34 9 15 17 19
48 53 16 15 17 18
49 54 16 15 17 18
50 55 16 15 17 19
51 52 15 19 17 18
52 35 9 17 15 16
53 49 15 17 19 20
54 50 15 17 19 21
55 51 15 17 19 22
56 56 18 17 19 20
57 57 18 17 19 21
58 58 18 17 19 22
