LAMMPS data file via write_data, version 23 Jun 2022, timestep = 1000000

22 atoms
7 atom types
21 bonds
21 bond types
36 angles
36 angle types
58 dihedrals
58 dihedral types

-25 25 xlo xhi
-25 25 ylo yhi
-25 25 zlo zhi

Masses

1 1.008
2 12.01
3 12.01
4 16
5 14.01
6 1.008
7 1.008

Atoms # full

3 1 1 0.1123 1.3263675795420882 -0.2845805312651127 -2.399309828117996 0 0 0
7 2 5 -0.4157 2.925885537106003 0.8212453114612375 -4.111480640699997 0 0 0
1 1 1 0.1123 0.13454139200751974 0.2193373002334608 -3.6457743471519066 0 0 0
5 1 3 0.5972 1.8314010982208333 1.4241466248351105 -3.7049423007770446 0 0 0
2 1 2 -0.3662 0.8691092272637003 0.5896112444048209 -2.9302075381375396 0 0 0
4 1 1 0.1123 0.2822918035080322 1.236107558722274 -2.2809744412932575 0 0 0
8 2 6 0.2719 3.1004085716776286 -0.18051187702780067 -3.857014878178448 0 0 0
10 2 7 0.0823 3.5758853526239736 2.3933160441178996 -5.230917196921925 0 0 0
13 2 1 0.0603 5.542454105552408 1.0634112578079526 -3.366049264821436 0 0 0
9 2 2 0.0337 3.9700191262883227 1.4500547437411628 -4.851387065684719 0 0 0
6 1 4 -0.5679 1.5770462954660103 2.6248331518045136 -3.949103170137031 0 0 0
15 2 3 0.5973000000000001 4.526210076349121 0.5648314998010975 -5.965247201338593 0 0 0
14 2 1 0.0603 5.803323060529444 2.391100846508043 -4.277214328459584 0 0 0
16 2 4 -0.5679 4.642873949088662 -0.6479898967439466 -5.8002255893796075 0 0 0
21 3 7 0.09760000000000001 4.589578379904557 -0.14664645876362856 -8.65437087434823 0 0 0
12 2 1 0.0603 4.683681359976584 2.508227557553534 -3.070410662277079 0 0 0
20 3 7 0.09760000000000001 6.37912686033017 0.15812196167422593 -8.042813036094621 0 0 0
11 2 2 -0.1825 4.974978972093446 1.8924222671804658 -3.8342181003707165 0 0 0
19 3 2 -0.149 5.360660721775591 0.5783640011614554 -8.359109431135463 0 0 0
18 3 6 0.2719 4.92575987180869 2.236724011518275 -7.058550892037271 0 0 0
17 3 5 -0.4157 4.8845487830917165 1.2024017620861065 -7.094769738349201 0 0 0
22 3 7 0.09760000000000001 5.6330515501629455 1.3850294924477466 -9.109175866965188 0 0 0

Velocities

3 0.0003309449025301676 0.019468658922644263 0.007600512958945798
7 -0.0016362789187024053 0.0030916920107678125 0.002064331100488682
1 0.001209167316951801 -0.012021677305676812 0.00956844643395862
5 0.0053496585303510836 -0.004684487050550767 -0.005864957911033103
2 -0.004030316053567924 -0.0042192348174548994 0.0007771793150227638
4 -0.025842982936566707 0.003516152933992177 -0.008715091730078084
8 0.01800171226712259 0.015577301582056986 0.02984207493544957
10 0.010634803365991 -0.013802012903896882 0.01514624598503772
13 0.00019611838205173737 0.02069828918200057 -0.012567278073526306
9 -0.00652049395471698 -0.0061767160316280375 -0.0021013199556553933
6 0.0024438844828800523 -0.002412221395888519 0.0007328331327536853
15 0.006348853475014847 -0.0005157807787351636 -0.0012076250767588741
14 -0.008949632546222308 -0.02441700216543548 -0.01968936952946477
16 -0.001894957185150713 -0.0017467879677845683 -0.0027132492697739255
21 0.040744863846466535 -0.0071265855417865925 -0.004073702597696279
12 0.0015686785048816291 -0.008281004070093469 -0.019230236815053862
20 0.014533144427463495 0.015849784292874643 -0.025184569964169096
11 0.004831463806772927 -5.10440576435363e-05 0.003949661258147809
19 -0.002041657742825835 -0.002653670683213143 0.003060826650926945
18 0.003703573153573036 -0.015166129980776539 0.006906100895452484
17 -0.0008700366619000602 -0.00023313424585839925 0.00023778120674742152
22 -0.014867159582931201 -0.015754316905686294 0.01089725516401457

Bonds

1 7 7 8
2 8 7 9
3 1 1 2
4 5 5 6
5 6 5 7
6 2 2 3
7 3 2 4
8 4 2 5
9 9 9 10
10 10 9 11
11 11 9 15
12 15 15 16
13 16 15 17
14 12 11 12
15 13 11 13
16 14 11 14
17 19 19 20
18 20 19 21
19 21 19 22
20 17 17 18
21 18 17 19

Angles

1 9 5 7 8
2 10 5 7 9
3 15 8 7 9
4 4 2 5 6
5 5 2 5 7
6 11 6 5 7
7 1 1 2 3
8 2 1 2 4
9 3 1 2 5
10 6 3 2 4
11 7 3 2 5
12 8 4 2 5
13 12 7 9 10
14 13 7 9 11
15 14 7 9 15
16 21 10 9 11
17 22 10 9 15
18 23 11 9 15
19 19 9 15 16
20 20 9 15 17
21 29 16 15 17
22 16 9 11 12
23 17 9 11 13
24 18 9 11 14
25 24 12 11 13
26 25 12 11 14
27 26 13 11 14
28 30 17 19 20
29 31 17 19 21
30 32 17 19 22
31 34 20 19 21
32 35 20 19 22
33 36 21 19 22
34 27 15 17 18
35 28 15 17 19
36 33 18 17 19

Dihedrals

1 6 2 7 5 6
2 13 5 7 9 10
3 14 5 7 9 11
4 15 5 7 9 11
5 16 5 7 9 11
6 17 5 7 9 15
7 18 5 7 9 15
8 30 8 7 9 10
9 31 8 7 9 11
10 32 8 7 9 15
11 4 2 5 7 8
12 5 2 5 7 9
13 20 6 5 7 8
14 21 6 5 7 8
15 22 6 5 7 9
16 1 1 2 5 6
17 2 1 2 5 6
18 3 1 2 5 7
19 7 3 2 5 6
20 8 3 2 5 6
21 9 3 2 5 7
22 10 4 2 5 6
23 11 4 2 5 6
24 12 4 2 5 7
25 19 5 9 7 8
26 23 7 9 11 12
27 24 7 9 11 13
28 25 7 9 11 14
29 26 7 9 15 16
30 27 7 9 15 17
31 28 7 9 15 17
32 29 7 9 15 17
33 36 10 9 11 12
34 37 10 9 11 13
35 38 10 9 11 14
36 39 10 9 15 16
37 40 10 9 15 16
38 41 10 9 15 17
39 42 11 9 15 16
40 43 11 9 15 17
41 44 11 9 15 17
42 45 11 9 15 17
43 46 15 9 11 12
44 47 15 9 11 13
45 48 15 9 11 14
46 33 9 15 17 18
47 34 9 15 17 19
48 53 16 15 17 18
49 54 16 15 17 18
50 55 16 15 17 19
51 52 15 19 17 18
52 35 9 17 15 16
53 49 15 17 19 20
54 50 15 17 19 21
55 51 15 17 19 22
56 56 18 17 19 20
57 57 18 17 19 21
58 58 18 17 19 22
