LAMMPS data file via write_data, version 23 Jun 2022, timestep = 1000000

22 atoms
7 atom types
21 bonds
21 bond types
36 angles
36 angle types
58 dihedrals
58 dihedral types

-25 25 xlo xhi
-25 25 ylo yhi
-25 25 zlo zhi

Masses

1 1.008
2 12.01
3 12.01
4 16
5 14.01
6 1.008
7 1.008

Atoms # full

3 1 1 0.1123 1.302299884620998 -0.4144258925738651 -2.7165633649783847 0 0 0
7 2 5 -0.4157 2.938531803151409 0.7699413808221045 -4.263884342324332 0 0 0
1 1 1 0.1123 -0.007802236384944237 0.3955325793935751 -3.6033606545803014 0 0 0
5 1 3 0.5972 1.8559893078889875 1.4270017786771978 -3.851783262906768 0 0 0
2 1 2 -0.3662 0.8406059262965304 0.5644682941426674 -3.107490970877781 0 0 0
4 1 1 0.1123 0.45264496758064277 1.137978610911933 -2.216189146570735 0 0 0
8 2 6 0.2719 2.9742456576367795 -0.21127632551875894 -4.14612623742468 0 0 0
10 2 7 0.0823 3.795733127590269 2.3834104725999645 -5.330325331921248 0 0 0
13 2 1 0.0603 5.341103570423325 1.0038093753805377 -3.2108938888881817 0 0 0
9 2 2 0.0337 4.091597988770349 1.4914282107583776 -4.86257798928413 0 0 0
6 1 4 -0.5679 1.6503300303358306 2.6414108202282356 -4.014579249679688 0 0 0
15 2 3 0.5973000000000001 4.611156819356288 0.5993463491462807 -5.952603821075377 0 0 0
14 2 1 0.0603 5.983380049756664 2.294666587513562 -4.19627788011954 0 0 0
16 2 4 -0.5679 4.653093761199317 -0.6370991345008585 -5.795774846295408 0 0 0
21 3 7 0.09760000000000001 4.618920908406798 0.03446535636667656 -8.794874688444873 0 0 0
12 2 1 0.0603 4.5137817141134 2.8391574083307427 -3.189947756885568 0 0 0
20 3 7 0.09760000000000001 6.321975967448269 -0.21142230708438053 -8.003947009326486 0 0 0
11 2 2 -0.1825 5.090081376534454 1.9556411076108853 -3.7855225542223425 0 0 0
19 3 2 -0.149 5.486475546802706 0.4605830824696386 -8.344693224059053 0 0 0
18 3 6 0.2719 4.724686005299074 2.1864478103575475 -7.246003838160689 0 0 0
17 3 5 -0.4157 4.92863714521226 1.156948635591903 -7.1649493765262795 0 0 0
22 3 7 0.09760000000000001 5.9793853099413 1.1629913644867202 -9.072859680443718 0 0 0

Velocities

3 0.007217113111042015 0.008642443347463658 0.012328674264940291
7 -0.0004983071368781201 0.002171447086370075 0.0019824695750446696
1 -0.015437991627878723 0.007986010034724855 -0.015442874903835217
5 -0.001558406135858475 0.005582214826822134 0.003623852517762821
2 -0.0016512441418957626 -0.006520495864717468 0.004900459447119764
4 0.010760300778803402 0.004411256117265436 0.004353986762294186
8 -0.002580866715096023 -0.0037209770531741004 0.0032841409214136906
10 0.02768857213694852 -0.0071574579720455125 0.04807449940987852
13 -0.010753672189430456 0.008561456390008004 -0.01153760393544477
9 -0.0035736215260837737 0.000404115634209605 0.0036981757365454563
6 0.006753214658687221 0.006546930710682841 -0.006176810331834386
15 0.0031399867475022008 -0.0046087437330821854 -0.004482566945938945
14 -0.012960802214899614 0.0015205434780869338 -0.00678722555737685
16 0.0048676280992829765 0.0006489096124305865 -0.003374535700183396
21 0.017779858931876745 0.011861418770742597 0.005165424329420725
12 0.003398498478967073 0.002290959883200447 0.030975635032057258
20 -0.02856152166737949 -0.03185115191151389 -0.018407278463191738
11 -0.003165731024196391 0.007472881411377395 0.0015323984199210364
19 -0.005752727793642637 -3.2780440496087246e-05 6.842145466009922e-05
18 -0.0027369392028285654 0.034901047161534464 -0.004444105393964839
17 0.004681677048311217 0.0024759471882351085 -0.00329002487098727
22 0.007682687307864707 -0.011875796915449049 0.001399355095176621

Bonds

1 7 7 8
2 8 7 9
3 1 1 2
4 5 5 6
5 6 5 7
6 2 2 3
7 3 2 4
8 4 2 5
9 9 9 10
10 10 9 11
11 11 9 15
12 15 15 16
13 16 15 17
14 12 11 12
15 13 11 13
16 14 11 14
17 19 19 20
18 20 19 21
19 21 19 22
20 17 17 18
21 18 17 19

Angles

1 9 5 7 8
2 10 5 7 9
3 15 8 7 9
4 4 2 5 6
5 5 2 5 7
6 11 6 5 7
7 1 1 2 3
8 2 1 2 4
9 3 1 2 5
10 6 3 2 4
11 7 3 2 5
12 8 4 2 5
13 12 7 9 10
14 13 7 9 11
15 14 7 9 15
16 21 10 9 11
17 22 10 9 15
18 23 11 9 15
19 19 9 15 16
20 20 9 15 17
21 29 16 15 17
22 16 9 11 12
23 17 9 11 13
24 18 9 11 14
25 24 12 11 13
26 25 12 11 14
27 26 13 11 14
28 30 17 19 20
29 31 17 19 21
30 32 17 19 22
31 34 20 19 21
32 35 20 19 22
33 36 21 19 22
34 27 15 17 18
35 28 15 17 19
36 33 18 17 19

Dihedrals

1 6 2 7 5 6
2 13 5 7 9 10
3 14 5 7 9 11
4 15 5 7 9 11
5 16 5 7 9 11
6 17 5 7 9 15
7 18 5 7 9 15
8 30 8 7 9 10
9 31 8 7 9 11
10 32 8 7 9 15
11 4 2 5 7 8
12 5 2 5 7 9
13 20 6 5 7 8
14 21 6 5 7 8
15 22 6 5 7 9
16 1 1 2 5 6
17 2 1 2 5 6
18 3 1 2 5 7
19 7 3 2 5 6
20 8 3 2 5 6
21 9 3 2 5 7
22 10 4 2 5 6
23 11 4 2 5 6
24 12 4 2 5 7
25 19 5 9 7 8
26 23 7 9 11 12
27 24 7 9 11 13
28 25 7 9 11 14
29 26 7 9 15 16
30 27 7 9 15 17
31 28 7 9 15 17
32 29 7 9 15 17
33 36 10 9 11 12
34 37 10 9 11 13
35 38 10 9 11 14
36 39 10 9 15 16
37 40 10 9 15 16
38 41 10 9 15 17
39 42 11 9 15 16
40 43 11 9 15 17
41 44 11 9 15 17
42 45 11 9 15 17
43 46 15 9 11 12
44 47 15 9 11 13
45 48 15 9 11 14
46 33 9 15 17 18
47 34 9 15 17 19
48 53 16 15 17 18
49 54 16 15 17 18
50 55 16 15 17 19
51 52 15 19 17 18
52 35 9 17 15 16
53 49 15 17 19 20
54 50 15 17 19 21
55 51 15 17 19 22
56 56 18 17 19 20
57 57 18 17 19 21
58 58 18 17 19 22
