LAMMPS data file via write_data, version 23 Jun 2022, timestep = 1000000

22 atoms
7 atom types
21 bonds
21 bond types
36 angles
36 angle types
58 dihedrals
58 dihedral types

-25 25 xlo xhi
-25 25 ylo yhi
-25 25 zlo zhi

Masses

1 1.008
2 12.01
3 12.01
4 16
5 14.01
6 1.008
7 1.008

Atoms # full

3 1 1 0.1123 1.4074558662143788 -0.01278739537681967 -2.407856309293123 0 0 0
7 2 5 -0.4157 2.938987840430089 0.8477109515843299 -4.199079652629644 0 0 0
1 1 1 0.1123 0.28714466382077924 0.036558287120568356 -3.7403182170106333 0 0 0
5 1 3 0.5972 1.8851957708426024 1.4430510470816016 -3.7756934603947157 0 0 0
2 1 2 -0.3662 0.8680161935547834 0.6184533730306941 -2.9643587705555414 0 0 0
4 1 1 0.1123 0.1492998990575407 1.2876791423339327 -2.4399077766750774 0 0 0
8 2 6 0.2719 3.0533639468520875 -0.22829097199379073 -4.065854856578428 0 0 0
10 2 7 0.0823 3.6797910117081294 2.5012076917763326 -5.354820939316263 0 0 0
13 2 1 0.0603 5.755360962081892 1.0580978888018873 -3.421077723008474 0 0 0
9 2 2 0.0337 4.005916820147401 1.5786138260918516 -4.866616110197748 0 0 0
6 1 4 -0.5679 1.61374542005957 2.616487985760227 -3.9373720645274264 0 0 0
15 2 3 0.5973000000000001 4.626328086862627 0.6930354442425561 -5.934191238008768 0 0 0
14 2 1 0.0603 5.653237759669454 2.8584679499037 -3.9637062618858367 0 0 0
16 2 4 -0.5679 4.664600151089521 -0.5253968318916696 -5.816728304513773 0 0 0
21 3 7 0.09760000000000001 4.3715235297145565 0.5908601538810209 -9.021220294487096 0 0 0
12 2 1 0.0603 4.4306218871833725 2.034551641956175 -2.886185409738619 0 0 0
20 3 7 0.09760000000000001 5.660269400989587 -0.3355732042038815 -8.149394314693838 0 0 0
11 2 2 -0.1825 5.0677386786076095 1.9034881444253846 -3.762279740826294 0 0 0
19 3 2 -0.149 5.318633792646767 0.7122956689126707 -8.357397641102622 0 0 0
18 3 6 0.2719 5.051055669932043 2.3365368521223284 -7.0475026324508 0 0 0
17 3 5 -0.4157 5.109493884432259 1.306802611895975 -7.058536203393976 0 0 0
22 3 7 0.09760000000000001 6.050124836483263 1.3125794702002584 -8.907612438883111 0 0 0

Velocities

3 0.023587864132472637 -0.013448230317629553 0.009411961555333088
7 -0.0003250819438980762 -0.007438596235797214 0.010164781752676105
1 0.001471183624315242 0.02984735626825223 0.007542871122084091
5 0.0023801226364417354 0.0016791600800919052 0.008865225491711337
2 -0.0028480796549615064 -0.001227108968651605 0.004013482382083439
4 0.019723418201104757 -0.001876658631275052 0.012889610091733027
8 -0.007998301075723774 0.021514971413410425 0.02084452319885739
10 0.03346875461757266 -0.004047487741848058 0.0033629931271518393
13 -0.03567755759845397 -0.017977103453093543 0.016640408047811396
9 -0.007542980433054448 -0.00030219459224236495 0.003754377505215158
6 0.004127780584054467 -0.0017947321163271225 0.002016701165568475
15 -0.0016238239342474701 -0.00022264003540421469 -0.0036409402401017775
14 0.013969604216964356 -0.031785381203575484 -0.002760034994439951
16 -0.0019015033616262638 -0.00035907248400271843 0.003617988120133754
21 -0.011490629298220667 0.011511574972068405 -0.008954714130542357
12 -0.0026286987707192493 -0.031275569175963296 0.018660179328284066
20 0.0009966626932953495 -0.015911853840953522 -0.022624543467966274
11 0.0069941238798160105 0.0020134109007651927 0.0028859350653034598
19 -0.004611055590644356 -0.00018110266414961317 -0.000523231523407482
18 -0.019889619957006423 0.008655509106996136 -0.009023076127542691
17 0.00751216506096985 -0.0011042637226856655 0.0018045780020475083
22 0.024366611136173666 0.004216781841794872 -0.027724960714455366

Bonds

1 7 7 8
2 8 7 9
3 1 1 2
4 5 5 6
5 6 5 7
6 2 2 3
7 3 2 4
8 4 2 5
9 9 9 10
10 10 9 11
11 11 9 15
12 15 15 16
13 16 15 17
14 12 11 12
15 13 11 13
16 14 11 14
17 19 19 20
18 20 19 21
19 21 19 22
20 17 17 18
21 18 17 19

Angles

1 9 5 7 8
2 10 5 7 9
3 15 8 7 9
4 4 2 5 6
5 5 2 5 7
6 11 6 5 7
7 1 1 2 3
8 2 1 2 4
9 3 1 2 5
10 6 3 2 4
11 7 3 2 5
12 8 4 2 5
13 12 7 9 10
14 13 7 9 11
15 14 7 9 15
16 21 10 9 11
17 22 10 9 15
18 23 11 9 15
19 19 9 15 16
20 20 9 15 17
21 29 16 15 17
22 16 9 11 12
23 17 9 11 13
24 18 9 11 14
25 24 12 11 13
26 25 12 11 14
27 26 13 11 14
28 30 17 19 20
29 31 17 19 21
30 32 17 19 22
31 34 20 19 21
32 35 20 19 22
33 36 21 19 22
34 27 15 17 18
35 28 15 17 19
36 33 18 17 19

Dihedrals

1 6 2 7 5 6
2 13 5 7 9 10
3 14 5 7 9 11
4 15 5 7 9 11
5 16 5 7 9 11
6 17 5 7 9 15
7 18 5 7 9 15
8 30 8 7 9 10
9 31 8 7 9 11
10 32 8 7 9 15
11 4 2 5 7 8
12 5 2 5 7 9
13 20 6 5 7 8
14 21 6 5 7 8
15 22 6 5 7 9
16 1 1 2 5 6
17 2 1 2 5 6
18 3 1 2 5 7
19 7 3 2 5 6
20 8 3 2 5 6
21 9 3 2 5 7
22 10 4 2 5 6
23 11 4 2 5 6
24 12 4 2 5 7
25 19 5 9 7 8
26 23 7 9 11 12
27 24 7 9 11 13
28 25 7 9 11 14
29 26 7 9 15 16
30 27 7 9 15 17
31 28 7 9 15 17
32 29 7 9 15 17
33 36 10 9 11 12
34 37 10 9 11 13
35 38 10 9 11 14
36 39 10 9 15 16
37 40 10 9 15 16
38 41 10 9 15 17
39 42 11 9 15 16
40 43 11 9 15 17
41 44 11 9 15 17
42 45 11 9 15 17
43 46 15 9 11 12
44 47 15 9 11 13
45 48 15 9 11 14
46 33 9 15 17 18
47 34 9 15 17 19
48 53 16 15 17 18
49 54 16 15 17 18
50 55 16 15 17 19
51 52 15 19 17 18
52 35 9 17 15 16
53 49 15 17 19 20
54 50 15 17 19 21
55 51 15 17 19 22
56 56 18 17 19 20
57 57 18 17 19 21
58 58 18 17 19 22
