LAMMPS data file via write_data, version 23 Jun 2022, timestep = 1000000

22 atoms
7 atom types
21 bonds
21 bond types
36 angles
36 angle types
58 dihedrals
58 dihedral types

-25 25 xlo xhi
-25 25 ylo yhi
-25 25 zlo zhi

Masses

1 1.008
2 12.01
3 12.01
4 16
5 14.01
6 1.008
7 1.008

Atoms # full

3 1 1 0.1123 1.1589494310761619 -0.20125328495785194 -2.481720854417226 0 0 0
7 2 5 -0.4157 2.939875219842993 0.8711746716624807 -4.187183965075135 0 0 0
1 1 1 0.1123 0.19338378072818055 0.3369937709344451 -3.904447018018222 0 0 0
5 1 3 0.5972 1.8115048557949889 1.4857607653279723 -3.7510007673329366 0 0 0
2 1 2 -0.3662 0.8174158941995256 0.6340155473694286 -3.082591340232351 0 0 0
4 1 1 0.1123 0.23999044658635352 1.2186594392967975 -2.4458655239998515 0 0 0
8 2 6 0.2719 3.0536735031302094 -0.14627381847472093 -3.9246166276935304 0 0 0
10 2 7 0.0823 3.789989908262188 2.3724539065144308 -5.400675443080334 0 0 0
13 2 1 0.0603 5.557212594849372 0.9161469312217817 -3.593174592093578 0 0 0
9 2 2 0.0337 3.9939151160355886 1.5669913065921972 -4.890190270854633 0 0 0
6 1 4 -0.5679 1.6402458316514754 2.6695406784996907 -4.026434788344134 0 0 0
15 2 3 0.5973000000000001 4.642059825884941 0.7175481270404893 -5.985839665156962 0 0 0
14 2 1 0.0603 5.80839512021042 2.5675467742853213 -4.159859361371675 0 0 0
16 2 4 -0.5679 4.661941698554336 -0.5098652688864993 -5.6963133739094785 0 0 0
21 3 7 0.09760000000000001 4.481578777350325 -0.19392810807421645 -8.662436352090022 0 0 0
12 2 1 0.0603 4.650666533822663 2.5458649125900568 -2.9385846594285185 0 0 0
20 3 7 0.09760000000000001 6.155597514821511 -0.09686743996334567 -8.084393050574997 0 0 0
11 2 2 -0.1825 5.055796622188564 1.9168043021854682 -3.7737771770179154 0 0 0
19 3 2 -0.149 5.345499627508751 0.5369808657446137 -8.352946255424792 0 0 0
18 3 6 0.2719 5.049600336532271 2.1834049018234802 -7.118159981444886 0 0 0
17 3 5 -0.4157 5.055913658368178 1.3037199374303259 -7.129087001292404 0 0 0
22 3 7 0.09760000000000001 5.721779510713139 1.1134512301347306 -9.170856843042712 0 0 0

Velocities

3 -0.023488615414786106 -0.01570151472746532 0.021191144333589377
7 0.0035862230973741993 -0.011457389777016743 -0.0038685732671821784
1 -0.018775225291337152 -0.017906185892314422 -0.01090108147330068
5 0.0007519635538384784 -0.0013251772354140288 0.003268558197478637
2 -0.0026749073566155767 -0.004505141423467179 0.008530026575244818
4 -0.007410447249933296 0.012020545331789966 -0.007597237585707837
8 -0.003097766871234765 -0.01730767495673344 -0.02364852420438275
10 -0.003130927749532742 0.009204689656413415 0.012325546087145445
13 0.016013668015024848 0.018063797167886125 0.01425130549208601
9 0.0009942572706869933 0.0023261802134512816 -0.010847756267569033
6 -0.0003280707295771506 -0.007207025646213755 -0.0001284286459481591
15 -0.005735307553698037 -0.010266016791215126 -0.0031566374848835234
14 -0.01976848553802899 0.0024168174271077055 0.007607595813250962
16 0.005201674158729345 0.0002389166891182537 0.0018871770781969186
21 0.006148190875509376 -0.010512861762003693 -0.0025398776039981764
12 0.023094597267117246 -0.007921330161951713 0.0029227315418742738
20 -0.0009024382763181693 0.005655286066764447 0.00483179672917364
11 -0.0022977947806815634 -0.009314987818093473 -0.0005969514620742209
19 0.012074947039217937 0.0015899179198127277 0.005437192861917246
18 0.028602758548936458 0.018261988934829214 0.009388583358432453
17 -0.002530923589697214 0.007724261286860694 0.0027575068827994952
22 -0.008435099499593885 0.010956412061430096 -0.005075672607474574

Bonds

1 7 7 8
2 8 7 9
3 1 1 2
4 5 5 6
5 6 5 7
6 2 2 3
7 3 2 4
8 4 2 5
9 9 9 10
10 10 9 11
11 11 9 15
12 15 15 16
13 16 15 17
14 12 11 12
15 13 11 13
16 14 11 14
17 19 19 20
18 20 19 21
19 21 19 22
20 17 17 18
21 18 17 19

Angles

1 9 5 7 8
2 10 5 7 9
3 15 8 7 9
4 4 2 5 6
5 5 2 5 7
6 11 6 5 7
7 1 1 2 3
8 2 1 2 4
9 3 1 2 5
10 6 3 2 4
11 7 3 2 5
12 8 4 2 5
13 12 7 9 10
14 13 7 9 11
15 14 7 9 15
16 21 10 9 11
17 22 10 9 15
18 23 11 9 15
19 19 9 15 16
20 20 9 15 17
21 29 16 15 17
22 16 9 11 12
23 17 9 11 13
24 18 9 11 14
25 24 12 11 13
26 25 12 11 14
27 26 13 11 14
28 30 17 19 20
29 31 17 19 21
30 32 17 19 22
31 34 20 19 21
32 35 20 19 22
33 36 21 19 22
34 27 15 17 18
35 28 15 17 19
36 33 18 17 19

Dihedrals

1 6 2 7 5 6
2 13 5 7 9 10
3 14 5 7 9 11
4 15 5 7 9 11
5 16 5 7 9 11
6 17 5 7 9 15
7 18 5 7 9 15
8 30 8 7 9 10
9 31 8 7 9 11
10 32 8 7 9 15
11 4 2 5 7 8
12 5 2 5 7 9
13 20 6 5 7 8
14 21 6 5 7 8
15 22 6 5 7 9
16 1 1 2 5 6
17 2 1 2 5 6
18 3 1 2 5 7
19 7 3 2 5 6
20 8 3 2 5 6
21 9 3 2 5 7
22 10 4 2 5 6
23 11 4 2 5 6
24 12 4 2 5 7
25 19 5 9 7 8
26 23 7 9 11 12
27 24 7 9 11 13
28 25 7 9 11 14
29 26 7 9 15 16
30 27 7 9 15 17
31 28 7 9 15 17
32 29 7 9 15 17
33 36 10 9 11 12
34 37 10 9 11 13
35 38 10 9 11 14
36 39 10 9 15 16
37 40 10 9 15 16
38 41 10 9 15 17
39 42 11 9 15 16
40 43 11 9 15 17
41 44 11 9 15 17
42 45 11 9 15 17
43 46 15 9 11 12
44 47 15 9 11 13
45 48 15 9 11 14
46 33 9 15 17 18
47 34 9 15 17 19
48 53 16 15 17 18
49 54 16 15 17 18
50 55 16 15 17 19
51 52 15 19 17 18
52 35 9 17 15 16
53 49 15 17 19 20
54 50 15 17 19 21
55 51 15 17 19 22
56 56 18 17 19 20
57 57 18 17 19 21
58 58 18 17 19 22
