LAMMPS data file via write_data, version 23 Jun 2022, timestep = 1000000

22 atoms
7 atom types
21 bonds
21 bond types
36 angles
36 angle types
58 dihedrals
58 dihedral types

-25 25 xlo xhi
-25 25 ylo yhi
-25 25 zlo zhi

Masses

1 1.008
2 12.01
3 12.01
4 16
5 14.01
6 1.008
7 1.008

Atoms # full

3 1 1 0.1123 1.4196880784404449 -0.2851928345845667 -2.62829298037286 0 0 0
7 2 5 -0.4157 2.9500355373858023 0.7875578079071389 -4.0541056001741085 0 0 0
1 1 1 0.1123 0.042146057896391254 0.2958500109280204 -3.6861413506040694 0 0 0
5 1 3 0.5972 1.813994013620563 1.383847499410349 -3.6166764750313503 0 0 0
2 1 2 -0.3662 0.8490768320720466 0.5195329914790422 -2.9440696835210085 0 0 0
4 1 1 0.1123 0.5798161753244379 1.0675171483195487 -2.0810078150949747 0 0 0
8 2 6 0.2719 3.1396853826246907 -0.171174757445278 -3.901093240639785 0 0 0
10 2 7 0.0823 3.6652404466137023 2.40019757914993 -5.261822597783315 0 0 0
13 2 1 0.0603 5.624583030425367 0.8696235267150773 -3.4609530670907955 0 0 0
9 2 2 0.0337 3.9869480342926464 1.4629394940678961 -4.831930920721534 0 0 0
6 1 4 -0.5679 1.6076078731467618 2.565432975333022 -3.885140487850768 0 0 0
15 2 3 0.5973000000000001 4.601610948346472 0.5742549939742932 -5.964869568844951 0 0 0
14 2 1 0.0603 5.922652189702234 2.2669067281951953 -4.381851618309816 0 0 0
16 2 4 -0.5679 4.743712445870394 -0.6375322041901744 -5.7867601145467376 0 0 0
21 3 7 0.09760000000000001 4.6450154937361985 -0.0017054897438568244 -8.808159522992552 0 0 0
12 2 1 0.0603 4.684694953752849 2.4081934942517096 -2.968334178315418 0 0 0
20 3 7 0.09760000000000001 6.33474619636015 0.15564338250686224 -8.178248514448244 0 0 0
11 2 2 -0.1825 5.127895299865444 1.7977233560394372 -3.8897216261563554 0 0 0
19 3 2 -0.149 5.42137554939232 0.6785645095529153 -8.393854794406494 0 0 0
18 3 6 0.2719 4.738421608296654 2.2737526729720683 -7.140477781730058 0 0 0
17 3 5 -0.4157 4.808776830689761 1.2041099297268527 -7.126070573277569 0 0 0
22 3 7 0.09760000000000001 5.621057938564294 1.4372311765321506 -9.056633174231402 0 0 0

Velocities

3 0.005222541292954634 0.011489326532238813 -0.003236185804125287
7 0.003728861071941514 -0.0025687670796597077 0.004525197045466146
1 0.0008137651384777836 0.029214657431558617 0.008484231151734425
5 0.008216849656448266 0.0036752328091854587 0.004978147551972717
2 -0.0029029057385749203 0.002153319935080728 0.0026835879761797883
4 0.005347055700493952 0.013813614902792867 -0.024118733419669983
8 -0.0033405690418513143 -0.011417371776680004 -0.023513742487684022
10 -0.014189452403694486 -0.006574004353176448 -0.031050851150456603
13 0.01875480408652361 -0.00732557998794545 -0.02014965263217841
9 -0.00019535290072510947 0.006918852860448165 -0.002705350129695726
6 -0.004101736900449576 0.003787546739939925 -0.0020754907287945756
15 -0.007025378780046769 -0.0023673540985755443 0.0038474453201486165
14 0.012505740579672289 0.0063782012897823665 -0.015996966886167634
16 4.782799126924514e-05 -0.005109363396965682 -2.4316750129527967e-05
21 0.026395251678851837 -0.01671765695195247 -0.0073605127750923675
12 0.0013798176201214355 -0.00788368336367411 0.02202256308391114
20 -0.014417499192120008 0.005732189687613009 0.000805588439760548
11 -0.0020125549397816047 -0.0043088589352641565 0.0010333157998734166
19 -0.005046023329130046 -0.00010405746877133778 -0.0005182625776371276
18 0.007333060365700068 0.017409607791038947 0.009964311760469798
17 0.006641526934199662 6.036238145943246e-05 -0.002940363252477067
22 -0.011333456235610488 -0.0021266752540045563 0.00168903008279305

Bonds

1 7 7 8
2 8 7 9
3 1 1 2
4 5 5 6
5 6 5 7
6 2 2 3
7 3 2 4
8 4 2 5
9 9 9 10
10 10 9 11
11 11 9 15
12 15 15 16
13 16 15 17
14 12 11 12
15 13 11 13
16 14 11 14
17 19 19 20
18 20 19 21
19 21 19 22
20 17 17 18
21 18 17 19

Angles

1 9 5 7 8
2 10 5 7 9
3 15 8 7 9
4 4 2 5 6
5 5 2 5 7
6 11 6 5 7
7 1 1 2 3
8 2 1 2 4
9 3 1 2 5
10 6 3 2 4
11 7 3 2 5
12 8 4 2 5
13 12 7 9 10
14 13 7 9 11
15 14 7 9 15
16 21 10 9 11
17 22 10 9 15
18 23 11 9 15
19 19 9 15 16
20 20 9 15 17
21 29 16 15 17
22 16 9 11 12
23 17 9 11 13
24 18 9 11 14
25 24 12 11 13
26 25 12 11 14
27 26 13 11 14
28 30 17 19 20
29 31 17 19 21
30 32 17 19 22
31 34 20 19 21
32 35 20 19 22
33 36 21 19 22
34 27 15 17 18
35 28 15 17 19
36 33 18 17 19

Dihedrals

1 6 2 7 5 6
2 13 5 7 9 10
3 14 5 7 9 11
4 15 5 7 9 11
5 16 5 7 9 11
6 17 5 7 9 15
7 18 5 7 9 15
8 30 8 7 9 10
9 31 8 7 9 11
10 32 8 7 9 15
11 4 2 5 7 8
12 5 2 5 7 9
13 20 6 5 7 8
14 21 6 5 7 8
15 22 6 5 7 9
16 1 1 2 5 6
17 2 1 2 5 6
18 3 1 2 5 7
19 7 3 2 5 6
20 8 3 2 5 6
21 9 3 2 5 7
22 10 4 2 5 6
23 11 4 2 5 6
24 12 4 2 5 7
25 19 5 9 7 8
26 23 7 9 11 12
27 24 7 9 11 13
28 25 7 9 11 14
29 26 7 9 15 16
30 27 7 9 15 17
31 28 7 9 15 17
32 29 7 9 15 17
33 36 10 9 11 12
34 37 10 9 11 13
35 38 10 9 11 14
36 39 10 9 15 16
37 40 10 9 15 16
38 41 10 9 15 17
39 42 11 9 15 16
40 43 11 9 15 17
41 44 11 9 15 17
42 45 11 9 15 17
43 46 15 9 11 12
44 47 15 9 11 13
45 48 15 9 11 14
46 33 9 15 17 18
47 34 9 15 17 19
48 53 16 15 17 18
49 54 16 15 17 18
50 55 16 15 17 19
51 52 15 19 17 18
52 35 9 17 15 16
53 49 15 17 19 20
54 50 15 17 19 21
55 51 15 17 19 22
56 56 18 17 19 20
57 57 18 17 19 21
58 58 18 17 19 22
