LAMMPS data file via write_data, version 23 Jun 2022, timestep = 1000000

22 atoms
7 atom types
21 bonds
21 bond types
36 angles
36 angle types
58 dihedrals
58 dihedral types

-25 25 xlo xhi
-25 25 ylo yhi
-25 25 zlo zhi

Masses

1 1.008
2 12.01
3 12.01
4 16
5 14.01
6 1.008
7 1.008

Atoms # full

3 1 1 0.1123 1.2587807980823076 -0.37310846715539225 -2.524186168510393 0 0 0
7 2 5 -0.4157 2.927364308011233 0.7847665334491944 -4.157738505958504 0 0 0
1 1 1 0.1123 0.09561023775639972 0.16956911973747102 -3.727020598147355 0 0 0
5 1 3 0.5972 1.8364479771979245 1.4412156629938782 -3.679797808412349 0 0 0
2 1 2 -0.3662 0.808152897478016 0.5634325613888341 -2.9783428177323725 0 0 0
4 1 1 0.1123 0.26959073420915264 1.1061856401034957 -2.2077142008378434 0 0 0
8 2 6 0.2719 3.0655013231925503 -0.22017277063859203 -4.10670881226292 0 0 0
10 2 7 0.0823 3.672606722712861 2.4481414582448497 -5.307564336248025 0 0 0
13 2 1 0.0603 5.494223618625213 0.9412422770662257 -3.3831535396844528 0 0 0
9 2 2 0.0337 3.980152703479199 1.4614661493819137 -4.882387343263472 0 0 0
6 1 4 -0.5679 1.5565299836194209 2.6091284221942863 -3.96499689121199 0 0 0
15 2 3 0.5973000000000001 4.49615955673266 0.5673427348152714 -6.023289231574149 0 0 0
14 2 1 0.0603 5.931309211800529 2.3108336038011488 -4.37389670295581 0 0 0
16 2 4 -0.5679 4.6062741644778935 -0.6331118209505548 -5.8009947259046335 0 0 0
21 3 7 0.09760000000000001 4.734751319134006 -0.12802198027414277 -8.814255879991485 0 0 0
12 2 1 0.0603 4.62088780486198 2.487792203543217 -3.2094532660201502 0 0 0
20 3 7 0.09760000000000001 6.326933220535402 -0.06659457062373914 -8.157526026912667 0 0 0
11 2 2 -0.1825 5.089583881965187 1.839971171362708 -3.8824555705982116 0 0 0
19 3 2 -0.149 5.455925245283104 0.5229139899849651 -8.344212423011042 0 0 0
18 3 6 0.2719 4.784654168898858 2.194880300109141 -7.183495919227929 0 0 0
17 3 5 -0.4157 4.893395019859903 1.2183607956607037 -7.1358147115153585 0 0 0
22 3 7 0.09760000000000001 5.702954291728393 1.1663495083107553 -9.16033583110229 0 0 0

Velocities

3 0.0018550769520694942 0.006235040276306397 0.03333572931182918
7 -0.010261091970146298 0.002145116893202786 0.0008041100462854537
1 -0.00648618823584497 0.016838948905001542 -0.01281123689719841
5 0.0015341875473367972 0.0037611168587481122 0.00045148751501191233
2 -0.005599006136993277 0.0009244638020110568 -0.006881609265781619
4 -0.006203563312276615 7.356538525428208e-05 -0.008125974738361842
8 -0.0007029637155159451 0.004361815659616105 0.00022266272694482833
10 -0.0033025302846968673 0.014084532305312498 -0.004492041906630473
13 -0.017969797131968942 -0.002243037881818238 0.007430903346244162
9 0.00730965047254827 -0.005863253902592794 0.0034026207733929056
6 0.00022119474180107046 0.0001252866672163919 -0.002465777985702456
15 0.002524086036082406 0.003294149123145713 0.005239263577964562
14 0.011581287405359325 -0.029841557682537455 -0.007794244481719549
16 -0.0032343730255853342 -0.007690052944427871 -0.005571149114359519
21 0.007118086706106908 0.021120301814205777 -0.011610694301330843
12 0.020293335067232868 -0.0005614434126733972 -0.011413351151277474
20 -0.0030645983025981926 -0.022012156951549986 0.0008574274744010471
11 -0.0036395057826542738 0.0034271351017233706 -0.0009812329124970272
19 -0.006551443301259185 0.00506007631685502 -0.002742954004477766
18 -0.0066250926960861115 -0.02352098752715104 -0.003693093889739023
17 0.004613108901252994 0.002726650715297549 -0.0014470903939707066
22 0.010074036465331022 -0.007820468356069381 -0.005705723568818492

Bonds

1 7 7 8
2 8 7 9
3 1 1 2
4 5 5 6
5 6 5 7
6 2 2 3
7 3 2 4
8 4 2 5
9 9 9 10
10 10 9 11
11 11 9 15
12 15 15 16
13 16 15 17
14 12 11 12
15 13 11 13
16 14 11 14
17 19 19 20
18 20 19 21
19 21 19 22
20 17 17 18
21 18 17 19

Angles

1 9 5 7 8
2 10 5 7 9
3 15 8 7 9
4 4 2 5 6
5 5 2 5 7
6 11 6 5 7
7 1 1 2 3
8 2 1 2 4
9 3 1 2 5
10 6 3 2 4
11 7 3 2 5
12 8 4 2 5
13 12 7 9 10
14 13 7 9 11
15 14 7 9 15
16 21 10 9 11
17 22 10 9 15
18 23 11 9 15
19 19 9 15 16
20 20 9 15 17
21 29 16 15 17
22 16 9 11 12
23 17 9 11 13
24 18 9 11 14
25 24 12 11 13
26 25 12 11 14
27 26 13 11 14
28 30 17 19 20
29 31 17 19 21
30 32 17 19 22
31 34 20 19 21
32 35 20 19 22
33 36 21 19 22
34 27 15 17 18
35 28 15 17 19
36 33 18 17 19

Dihedrals

1 6 2 7 5 6
2 13 5 7 9 10
3 14 5 7 9 11
4 15 5 7 9 11
5 16 5 7 9 11
6 17 5 7 9 15
7 18 5 7 9 15
8 30 8 7 9 10
9 31 8 7 9 11
10 32 8 7 9 15
11 4 2 5 7 8
12 5 2 5 7 9
13 20 6 5 7 8
14 21 6 5 7 8
15 22 6 5 7 9
16 1 1 2 5 6
17 2 1 2 5 6
18 3 1 2 5 7
19 7 3 2 5 6
20 8 3 2 5 6
21 9 3 2 5 7
22 10 4 2 5 6
23 11 4 2 5 6
24 12 4 2 5 7
25 19 5 9 7 8
26 23 7 9 11 12
27 24 7 9 11 13
28 25 7 9 11 14
29 26 7 9 15 16
30 27 7 9 15 17
31 28 7 9 15 17
32 29 7 9 15 17
33 36 10 9 11 12
34 37 10 9 11 13
35 38 10 9 11 14
36 39 10 9 15 16
37 40 10 9 15 16
38 41 10 9 15 17
39 42 11 9 15 16
40 43 11 9 15 17
41 44 11 9 15 17
42 45 11 9 15 17
43 46 15 9 11 12
44 47 15 9 11 13
45 48 15 9 11 14
46 33 9 15 17 18
47 34 9 15 17 19
48 53 16 15 17 18
49 54 16 15 17 18
50 55 16 15 17 19
51 52 15 19 17 18
52 35 9 17 15 16
53 49 15 17 19 20
54 50 15 17 19 21
55 51 15 17 19 22
56 56 18 17 19 20
57 57 18 17 19 21
58 58 18 17 19 22
