LAMMPS data file via write_data, version 23 Jun 2022, timestep = 1000000

22 atoms
7 atom types
21 bonds
21 bond types
36 angles
36 angle types
58 dihedrals
58 dihedral types

-25 25 xlo xhi
-25 25 ylo yhi
-25 25 zlo zhi

Masses

1 1.008
2 12.01
3 12.01
4 16
5 14.01
6 1.008
7 1.008

Atoms # full

3 1 1 0.1123 1.305630347971333 -0.4911520072971547 -2.7624899685998052 0 0 0
7 2 5 -0.4157 2.9618157035268635 0.7421336455052898 -3.9903281130783226 0 0 0
1 1 1 0.1123 -0.08923027738700241 0.26838190752469476 -3.480930759768227 0 0 0
5 1 3 0.5972 1.8203837306723305 1.3863655875557237 -3.5750919165602255 0 0 0
2 1 2 -0.3662 0.7617670749820961 0.5037701753323248 -2.92853523689168 0 0 0
4 1 1 0.1123 0.42709913311643305 0.8928527777403491 -2.031985243473159 0 0 0
8 2 6 0.2719 3.028175900943602 -0.26273519861797195 -3.8782860144451687 0 0 0
10 2 7 0.0823 3.5950762041816837 2.314753403707897 -5.241609727014137 0 0 0
13 2 1 0.0603 5.713108022936687 0.8736900897713147 -3.4038641134075576 0 0 0
9 2 2 0.0337 3.9814060860549523 1.4364558937421952 -4.759039757050589 0 0 0
6 1 4 -0.5679 1.5773176290655513 2.536276525589415 -3.873047690430993 0 0 0
15 2 3 0.5973000000000001 4.518702323062745 0.6059933457998894 -5.969399009611346 0 0 0
14 2 1 0.0603 5.9255555447383905 2.4880717836989614 -4.396143626120205 0 0 0
16 2 4 -0.5679 4.71801674350308 -0.6116681858395291 -5.791110142911038 0 0 0
21 3 7 0.09760000000000001 4.785397588184129 0.08471936298274557 -8.892995416240126 0 0 0
12 2 1 0.0603 4.64280706003383 2.402332300076971 -3.037120969125319 0 0 0
20 3 7 0.09760000000000001 6.282886708449493 0.06567753028157375 -8.123755626530672 0 0 0
11 2 2 -0.1825 5.137070770194257 1.8131099927239702 -3.8037389251825378 0 0 0
19 3 2 -0.149 5.4112811537553025 0.6189261815980737 -8.338285556786188 0 0 0
18 3 6 0.2719 4.7494630850224535 2.2011480913085473 -7.176926164308795 0 0 0
17 3 5 -0.4157 4.845467413102208 1.2516934666503112 -7.134875131473952 0 0 0
22 3 7 0.09760000000000001 5.81929197259069 1.466744452290489 -8.986633354867326 0 0 0

Velocities

3 -0.017798060025060975 -0.0006372778791613135 0.012211714364169388
7 0.007565554234939947 0.0014385871477218615 0.007915775827439108
1 0.012339833737540837 -0.022130063305020695 0.004949166087805733
5 -0.003900542651052934 -0.005152760010425874 -0.001000945653837132
2 0.0034619408717561522 -0.0014233960706316244 -0.0005553534233780524
4 0.017541974828549665 0.01952645371239317 0.015057985979302965
8 0.00801429438638761 -0.020872330430869532 0.02807818777977722
10 0.013764427073301694 -0.013349099757158932 0.022751157748917037
13 -0.008031169493600634 0.01930398345185144 0.010152087674392232
9 -0.0011789113321542671 0.003614392221710822 -0.0015851660983461592
6 0.005217768349254217 -0.002966262195465593 -7.875301928369789e-05
15 0.00097006484265331 -0.003447902537743138 3.0377773869384966e-05
14 0.010900369959550054 0.009323742424257656 0.011110640465132904
16 -0.0033402254976859416 0.0030950245617059917 0.00042736655012792736
21 -0.00033099350757978974 0.014027778090425293 -0.030508407555570147
12 0.01706605980940938 0.0015854688735297343 -0.02437235505175827
20 0.023640770994646267 0.02060419935145984 -0.00815278607472468
11 0.0003623551210762241 0.0027459100707445867 0.0016059395747050583
19 0.003991673238003076 -0.007458549060899173 0.005204527063539524
18 0.014179070657045226 -0.019198578747889387 0.0062782665435151454
17 -0.004527027867657664 -0.003120572891639784 0.006231057088126275
22 -0.005683258621913211 -0.010766634237493609 -0.005513888947413882

Bonds

1 7 7 8
2 8 7 9
3 1 1 2
4 5 5 6
5 6 5 7
6 2 2 3
7 3 2 4
8 4 2 5
9 9 9 10
10 10 9 11
11 11 9 15
12 15 15 16
13 16 15 17
14 12 11 12
15 13 11 13
16 14 11 14
17 19 19 20
18 20 19 21
19 21 19 22
20 17 17 18
21 18 17 19

Angles

1 9 5 7 8
2 10 5 7 9
3 15 8 7 9
4 4 2 5 6
5 5 2 5 7
6 11 6 5 7
7 1 1 2 3
8 2 1 2 4
9 3 1 2 5
10 6 3 2 4
11 7 3 2 5
12 8 4 2 5
13 12 7 9 10
14 13 7 9 11
15 14 7 9 15
16 21 10 9 11
17 22 10 9 15
18 23 11 9 15
19 19 9 15 16
20 20 9 15 17
21 29 16 15 17
22 16 9 11 12
23 17 9 11 13
24 18 9 11 14
25 24 12 11 13
26 25 12 11 14
27 26 13 11 14
28 30 17 19 20
29 31 17 19 21
30 32 17 19 22
31 34 20 19 21
32 35 20 19 22
33 36 21 19 22
34 27 15 17 18
35 28 15 17 19
36 33 18 17 19

Dihedrals

1 6 2 7 5 6
2 13 5 7 9 10
3 14 5 7 9 11
4 15 5 7 9 11
5 16 5 7 9 11
6 17 5 7 9 15
7 18 5 7 9 15
8 30 8 7 9 10
9 31 8 7 9 11
10 32 8 7 9 15
11 4 2 5 7 8
12 5 2 5 7 9
13 20 6 5 7 8
14 21 6 5 7 8
15 22 6 5 7 9
16 1 1 2 5 6
17 2 1 2 5 6
18 3 1 2 5 7
19 7 3 2 5 6
20 8 3 2 5 6
21 9 3 2 5 7
22 10 4 2 5 6
23 11 4 2 5 6
24 12 4 2 5 7
25 19 5 9 7 8
26 23 7 9 11 12
27 24 7 9 11 13
28 25 7 9 11 14
29 26 7 9 15 16
30 27 7 9 15 17
31 28 7 9 15 17
32 29 7 9 15 17
33 36 10 9 11 12
34 37 10 9 11 13
35 38 10 9 11 14
36 39 10 9 15 16
37 40 10 9 15 16
38 41 10 9 15 17
39 42 11 9 15 16
40 43 11 9 15 17
41 44 11 9 15 17
42 45 11 9 15 17
43 46 15 9 11 12
44 47 15 9 11 13
45 48 15 9 11 14
46 33 9 15 17 18
47 34 9 15 17 19
48 53 16 15 17 18
49 54 16 15 17 18
50 55 16 15 17 19
51 52 15 19 17 18
52 35 9 17 15 16
53 49 15 17 19 20
54 50 15 17 19 21
55 51 15 17 19 22
56 56 18 17 19 20
57 57 18 17 19 21
58 58 18 17 19 22
