LAMMPS data file via write_data, version 23 Jun 2022, timestep = 1000000

22 atoms
7 atom types
21 bonds
21 bond types
36 angles
36 angle types
58 dihedrals
58 dihedral types

-25 25 xlo xhi
-25 25 ylo yhi
-25 25 zlo zhi

Masses

1 1.008
2 12.01
3 12.01
4 16
5 14.01
6 1.008
7 1.008

Atoms # full

3 1 1 0.1123 1.2826495780315492 -0.306674880207935 -2.6855761742953455 0 0 0
7 2 5 -0.4157 2.9404986844337855 0.7477536367320831 -4.248735185267819 0 0 0
1 1 1 0.1123 0.0900005160232531 0.447140128503241 -3.833907651105477 0 0 0
5 1 3 0.5972 1.8262580943972364 1.3497439356839553 -3.8515001371929625 0 0 0
2 1 2 -0.3662 0.8192163788781427 0.6083239727936466 -3.0748881657103655 0 0 0
4 1 1 0.1123 0.41799509080261743 1.2931799046272943 -2.322668903679316 0 0 0
8 2 6 0.2719 3.1082939181194007 -0.2700785355627223 -4.0045515032852945 0 0 0
10 2 7 0.0823 3.7585781790296466 2.3737293883061383 -5.455364322283542 0 0 0
13 2 1 0.0603 5.315532914028408 1.0237611059160805 -3.0919036423677966 0 0 0
9 2 2 0.0337 4.089656921977632 1.4673460426878244 -4.886961686435919 0 0 0
6 1 4 -0.5679 1.7175000073508986 2.6078617719556516 -4.00666489006411 0 0 0
15 2 3 0.5973000000000001 4.632662118153011 0.5287129880110175 -6.00125802625249 0 0 0
14 2 1 0.0603 6.03158375595673 2.219488928403217 -4.375358659833883 0 0 0
16 2 4 -0.5679 4.6630371909874695 -0.638692008537918 -5.783087763516501 0 0 0
21 3 7 0.09760000000000001 4.705714208361942 0.05400847236118105 -8.944035074888458 0 0 0
12 2 1 0.0603 4.782965527702738 2.561782862482808 -3.158543449183604 0 0 0
20 3 7 0.09760000000000001 6.199446153638923 -0.3452428194658577 -8.130487382552687 0 0 0
11 2 2 -0.1825 5.1409162496818235 1.8111253873097597 -3.757410285403511 0 0 0
19 3 2 -0.149 5.49523783069239 0.4823579282237404 -8.398349469996083 0 0 0
18 3 6 0.2719 4.775449823785214 2.166253879019501 -7.357651855725083 0 0 0
17 3 5 -0.4157 4.949001530305959 1.1500501493752817 -7.219495950197688 0 0 0
22 3 7 0.09760000000000001 6.027525299838992 1.0357846115283114 -9.119668247190093 0 0 0

Velocities

3 -0.011809934326822877 0.010332382559900124 0.015413347200529896
7 -0.009695455846355411 -0.0006946380047697096 0.004165316087880352
1 0.014666685528127409 0.010423270516142254 -0.006880982339306261
5 -0.005885676215691286 -0.0029707944723810146 -0.0034172786477510504
2 -0.002356773814528721 -0.01123432425587156 0.0019392240102323274
4 -0.010233649643525546 -0.023617731064125652 -0.007065693678452719
8 -0.010072656560579768 -0.005987005294479685 -0.009405016559908703
10 -0.029005206739913 0.015977335159756335 -0.012236616508281922
13 0.025155679144383516 0.00012934655110685787 0.019854803652376234
9 -0.003605932933596722 0.002443014676333683 -0.004068462960473132
6 0.0005396913669222893 -0.0041072586815991815 0.0005912679916123574
15 -0.005145793995114589 -0.0015142724040237907 -0.005898868603547599
14 0.006504984220296951 0.003304474497843128 0.010356669522823424
16 -0.001544845209822576 0.0019531206189110175 0.0036517316527528527
21 0.0012861927541738894 -0.02037911357937808 -0.01100847622266056
12 0.01241043466651883 -0.02433308958547871 0.0015486160551083782
20 0.013682986254911052 0.018691854617396204 -0.03676059860313191
11 0.004137617296506611 -0.018770618298334006 -0.005017871482251857
19 0.0017516624263455888 -0.009978663417874546 -0.0009282191894001051
18 -0.03607642646017312 -0.016999270331295488 -0.019849063556728143
17 0.0038277320379451465 0.007994276234851418 -0.0008927170925412312
22 -0.021987226479691983 0.011697141069338324 -0.010840475068387074

Bonds

1 7 7 8
2 8 7 9
3 1 1 2
4 5 5 6
5 6 5 7
6 2 2 3
7 3 2 4
8 4 2 5
9 9 9 10
10 10 9 11
11 11 9 15
12 15 15 16
13 16 15 17
14 12 11 12
15 13 11 13
16 14 11 14
17 19 19 20
18 20 19 21
19 21 19 22
20 17 17 18
21 18 17 19

Angles

1 9 5 7 8
2 10 5 7 9
3 15 8 7 9
4 4 2 5 6
5 5 2 5 7
6 11 6 5 7
7 1 1 2 3
8 2 1 2 4
9 3 1 2 5
10 6 3 2 4
11 7 3 2 5
12 8 4 2 5
13 12 7 9 10
14 13 7 9 11
15 14 7 9 15
16 21 10 9 11
17 22 10 9 15
18 23 11 9 15
19 19 9 15 16
20 20 9 15 17
21 29 16 15 17
22 16 9 11 12
23 17 9 11 13
24 18 9 11 14
25 24 12 11 13
26 25 12 11 14
27 26 13 11 14
28 30 17 19 20
29 31 17 19 21
30 32 17 19 22
31 34 20 19 21
32 35 20 19 22
33 36 21 19 22
34 27 15 17 18
35 28 15 17 19
36 33 18 17 19

Dihedrals

1 6 2 7 5 6
2 13 5 7 9 10
3 14 5 7 9 11
4 15 5 7 9 11
5 16 5 7 9 11
6 17 5 7 9 15
7 18 5 7 9 15
8 30 8 7 9 10
9 31 8 7 9 11
10 32 8 7 9 15
11 4 2 5 7 8
12 5 2 5 7 9
13 20 6 5 7 8
14 21 6 5 7 8
15 22 6 5 7 9
16 1 1 2 5 6
17 2 1 2 5 6
18 3 1 2 5 7
19 7 3 2 5 6
20 8 3 2 5 6
21 9 3 2 5 7
22 10 4 2 5 6
23 11 4 2 5 6
24 12 4 2 5 7
25 19 5 9 7 8
26 23 7 9 11 12
27 24 7 9 11 13
28 25 7 9 11 14
29 26 7 9 15 16
30 27 7 9 15 17
31 28 7 9 15 17
32 29 7 9 15 17
33 36 10 9 11 12
34 37 10 9 11 13
35 38 10 9 11 14
36 39 10 9 15 16
37 40 10 9 15 16
38 41 10 9 15 17
39 42 11 9 15 16
40 43 11 9 15 17
41 44 11 9 15 17
42 45 11 9 15 17
43 46 15 9 11 12
44 47 15 9 11 13
45 48 15 9 11 14
46 33 9 15 17 18
47 34 9 15 17 19
48 53 16 15 17 18
49 54 16 15 17 18
50 55 16 15 17 19
51 52 15 19 17 18
52 35 9 17 15 16
53 49 15 17 19 20
54 50 15 17 19 21
55 51 15 17 19 22
56 56 18 17 19 20
57 57 18 17 19 21
58 58 18 17 19 22
