LAMMPS data file via write_data, version 23 Jun 2022, timestep = 1000000

22 atoms
7 atom types
21 bonds
21 bond types
36 angles
36 angle types
58 dihedrals
58 dihedral types

-25 25 xlo xhi
-25 25 ylo yhi
-25 25 zlo zhi

Masses

1 1.008
2 12.01
3 12.01
4 16
5 14.01
6 1.008
7 1.008

Atoms # full

3 1 1 0.1123 1.260942502287096 -0.1258210029193201 -2.403033406274008 0 0 0
7 2 5 -0.4157 2.913264892074115 0.8713237102161794 -4.1844842956145625 0 0 0
1 1 1 0.1123 0.148231536645587 -0.06854660608246915 -3.8475017845505857 0 0 0
5 1 3 0.5972 1.8452822588282394 1.4593235257899841 -3.7709886721248003 0 0 0
2 1 2 -0.3662 0.815229130497917 0.5507836108381549 -3.077912002657716 0 0 0
4 1 1 0.1123 0.16298749046767178 1.2501026800495771 -2.4055754639033826 0 0 0
8 2 6 0.2719 3.0273204762864236 -0.05733728436731024 -3.8517565638210933 0 0 0
10 2 7 0.0823 3.6031801245738153 2.5203434876450177 -5.182486583637725 0 0 0
13 2 1 0.0603 5.9254465986471905 1.045667874698715 -3.6009935944671905 0 0 0
9 2 2 0.0337 4.060231304914472 1.547474620530146 -4.866055026335598 0 0 0
6 1 4 -0.5679 1.6137752821478768 2.6612645208782655 -3.9449545852465033 0 0 0
15 2 3 0.5973000000000001 4.652392456845577 0.7750667765758115 -5.9575453924826975 0 0 0
14 2 1 0.0603 5.761980130647477 2.785025160039488 -4.066892628174552 0 0 0
16 2 4 -0.5679 4.750718284366786 -0.46902852729357875 -5.8707832566255185 0 0 0
21 3 7 0.09760000000000001 4.418284080578525 0.7407212295204224 -9.005752190092318 0 0 0
12 2 1 0.0603 4.524877569894354 2.0800461694265246 -2.8690327127558364 0 0 0
20 3 7 0.09760000000000001 5.5476799383131 -0.32424013365454374 -8.276975091671565 0 0 0
11 2 2 -0.1825 5.139182147186703 1.9368682409270372 -3.7669302450871816 0 0 0
19 3 2 -0.149 5.28150000547891 0.7783034791745965 -8.36991895275201 0 0 0
18 3 6 0.2719 5.0272178885443815 2.359781462738719 -7.23671029319064 0 0 0
17 3 5 -0.4157 5.067291897028418 1.4006845438204836 -7.075204187411796 0 0 0
22 3 7 0.09760000000000001 6.12488449525536 1.1569679761620293 -8.922545590086134 0 0 0

Velocities

3 -0.0052571638739497195 0.008329592643463191 0.006275486216566313
7 0.002827857847860809 -0.000398484567892254 -0.005655725821544303
1 -0.002690285616397499 0.0033401375342456906 0.011925972475662404
5 0.002458365659555329 -0.0053337922122145415 0.0004600714009439198
2 6.107539408411848e-05 0.0050025035482886586 -0.005370435376913179
4 0.02848728577816046 -0.006771853671608333 -0.014268301073242659
8 -0.0070386672790655105 -0.0032771482522014348 0.011638341339231391
10 -0.009284877453345426 -0.022462064642340924 -0.010026672006381963
13 0.008414457792474227 0.008327610770112358 0.021296933927703977
9 0.008100259660160265 -0.0023715633672203237 0.002379774823493038
6 0.0012596909050858667 -0.006771694544621384 0.0036085486475180293
15 0.002157073330819246 -0.002013566205213506 -0.002910612250576422
14 -0.03354484243402735 -0.013187741666921065 0.019329950984324794
16 0.0027402262235303367 -0.0016591905501168092 0.0021303921510797312
21 -0.019375652495939175 0.033727062598510604 -0.005008341734367284
12 0.02734305187144976 0.005673536582721115 0.001585448980887551
20 0.021587599819116256 -0.011716649577876081 0.012992382481015006
11 0.0065455509223635265 -0.0001097730260513789 0.0006850087316776966
19 0.0002954231528318169 0.0005705845668083377 -0.00045206101858617765
18 0.012191193600213644 0.018714291272395045 0.0017529719732777846
17 -0.009213006152774292 -0.0015229182381093433 0.0024252558525569806
22 0.012098942753905662 0.004653593777024074 0.0121817058385598

Bonds

1 7 7 8
2 8 7 9
3 1 1 2
4 5 5 6
5 6 5 7
6 2 2 3
7 3 2 4
8 4 2 5
9 9 9 10
10 10 9 11
11 11 9 15
12 15 15 16
13 16 15 17
14 12 11 12
15 13 11 13
16 14 11 14
17 19 19 20
18 20 19 21
19 21 19 22
20 17 17 18
21 18 17 19

Angles

1 9 5 7 8
2 10 5 7 9
3 15 8 7 9
4 4 2 5 6
5 5 2 5 7
6 11 6 5 7
7 1 1 2 3
8 2 1 2 4
9 3 1 2 5
10 6 3 2 4
11 7 3 2 5
12 8 4 2 5
13 12 7 9 10
14 13 7 9 11
15 14 7 9 15
16 21 10 9 11
17 22 10 9 15
18 23 11 9 15
19 19 9 15 16
20 20 9 15 17
21 29 16 15 17
22 16 9 11 12
23 17 9 11 13
24 18 9 11 14
25 24 12 11 13
26 25 12 11 14
27 26 13 11 14
28 30 17 19 20
29 31 17 19 21
30 32 17 19 22
31 34 20 19 21
32 35 20 19 22
33 36 21 19 22
34 27 15 17 18
35 28 15 17 19
36 33 18 17 19

Dihedrals

1 6 2 7 5 6
2 13 5 7 9 10
3 14 5 7 9 11
4 15 5 7 9 11
5 16 5 7 9 11
6 17 5 7 9 15
7 18 5 7 9 15
8 30 8 7 9 10
9 31 8 7 9 11
10 32 8 7 9 15
11 4 2 5 7 8
12 5 2 5 7 9
13 20 6 5 7 8
14 21 6 5 7 8
15 22 6 5 7 9
16 1 1 2 5 6
17 2 1 2 5 6
18 3 1 2 5 7
19 7 3 2 5 6
20 8 3 2 5 6
21 9 3 2 5 7
22 10 4 2 5 6
23 11 4 2 5 6
24 12 4 2 5 7
25 19 5 9 7 8
26 23 7 9 11 12
27 24 7 9 11 13
28 25 7 9 11 14
29 26 7 9 15 16
30 27 7 9 15 17
31 28 7 9 15 17
32 29 7 9 15 17
33 36 10 9 11 12
34 37 10 9 11 13
35 38 10 9 11 14
36 39 10 9 15 16
37 40 10 9 15 16
38 41 10 9 15 17
39 42 11 9 15 16
40 43 11 9 15 17
41 44 11 9 15 17
42 45 11 9 15 17
43 46 15 9 11 12
44 47 15 9 11 13
45 48 15 9 11 14
46 33 9 15 17 18
47 34 9 15 17 19
48 53 16 15 17 18
49 54 16 15 17 18
50 55 16 15 17 19
51 52 15 19 17 18
52 35 9 17 15 16
53 49 15 17 19 20
54 50 15 17 19 21
55 51 15 17 19 22
56 56 18 17 19 20
57 57 18 17 19 21
58 58 18 17 19 22
