LAMMPS data file via write_data, version 23 Jun 2022, timestep = 1000000

22 atoms
7 atom types
21 bonds
21 bond types
36 angles
36 angle types
58 dihedrals
58 dihedral types

-25 25 xlo xhi
-25 25 ylo yhi
-25 25 zlo zhi

Masses

1 1.008
2 12.01
3 12.01
4 16
5 14.01
6 1.008
7 1.008

Atoms # full

3 1 1 0.1123 1.2505829322415303 -0.4367130528125023 -2.748059461509429 0 0 0
7 2 5 -0.4157 2.9821507780988834 0.8248823968488147 -4.157519377426582 0 0 0
1 1 1 0.1123 0.014669154560023195 0.24206054489863957 -3.8972448310564327 0 0 0
5 1 3 0.5972 1.8511363501800078 1.443972617088455 -3.7450937154431587 0 0 0
2 1 2 -0.3662 0.7322506912378014 0.561409353841225 -3.148597968767861 0 0 0
4 1 1 0.1123 0.28932696767438676 1.112437062339975 -2.276163104091907 0 0 0
8 2 6 0.2719 3.1335254635128216 -0.1607804442024095 -4.107098338167232 0 0 0
10 2 7 0.0823 3.499355801779688 2.4231734404169107 -5.403058360938654 0 0 0
13 2 1 0.0603 5.609392056335579 1.0291767698056387 -3.5688593518379035 0 0 0
9 2 2 0.0337 3.9761029246373267 1.5667587043697762 -4.894063865407085 0 0 0
6 1 4 -0.5679 1.596177032650256 2.595098584386811 -4.056719376145316 0 0 0
15 2 3 0.5973000000000001 4.610015416652157 0.6228536660836228 -5.9747534934924245 0 0 0
14 2 1 0.0603 5.799861607021132 2.667583312861999 -4.213397103514559 0 0 0
16 2 4 -0.5679 4.670599505326375 -0.6085449698032159 -5.747921118731091 0 0 0
21 3 7 0.09760000000000001 4.483071052044864 -0.18784350048324364 -8.644082634450093 0 0 0
12 2 1 0.0603 4.620001253858593 2.53514512732725 -3.015746393724568 0 0 0
20 3 7 0.09760000000000001 6.1833385157675 -0.13197361847606612 -8.101572039639944 0 0 0
11 2 2 -0.1825 5.071910007836903 1.956620255086146 -3.886905111750875 0 0 0
19 3 2 -0.149 5.353042435568908 0.4611759113333818 -8.360258081315823 0 0 0
18 3 6 0.2719 4.964094863977438 2.1722757079542703 -7.084847792028199 0 0 0
17 3 5 -0.4157 4.985226225413958 1.1860188002261955 -7.118010402200237 0 0 0
22 3 7 0.09760000000000001 5.624280256627662 1.2297503855995664 -9.090511139629887 0 0 0

Velocities

3 0.0157749092012413 0.0009023709899562415 0.018677054222901713
7 -0.008662875863627765 -0.005695133891845398 -0.00022596954654333784
1 -0.0077601946700935134 0.0008649733449753298 -0.013979276104767409
5 0.002538580617856937 -0.0022323548690390466 -0.00024220303076622515
2 0.00557621601032696 0.005050580477554167 -0.0024948953341809746
4 -0.010688798049012606 0.012897789430540837 0.005569527878002403
8 0.012587365735683125 0.004961945483137355 -0.027052252143997327
10 -0.009898311370179809 0.02035177530722828 0.024845581977281605
13 0.0011868072415779588 0.016077249517626423 -0.008831542155611292
9 -0.0005698887179946318 -0.0005566994226814726 0.005929413026300112
6 -0.000813100044587645 0.006417395563634345 0.003718899174610815
15 0.002219328178322393 -0.005845253487860929 -0.0012500970193423128
14 -0.012192259832320666 -0.011024624405969807 -0.016866252545529436
16 -0.005962267076728882 -0.0012103229356123682 -0.0027432634229979094
21 0.004909834506255901 -0.012869559549333583 -0.013367434245071802
12 -0.013562828204019854 -0.011306070084184239 -0.026236169897677138
20 0.018040510921317508 0.011029933809461757 -0.012432759778837154
11 -0.00528344083969799 -0.009945065122909012 -0.003733377383066217
19 0.0019378548274278018 -0.0019596359954355265 -0.0005415918071455402
18 0.013260686748821573 -0.011534753799029095 -0.012412091770800597
17 0.0014099621996227845 -0.0016356214091865187 -0.006115655301048689
22 -0.013156911501588847 -0.012087628190759878 -0.006347487904576383

Bonds

1 7 7 8
2 8 7 9
3 1 1 2
4 5 5 6
5 6 5 7
6 2 2 3
7 3 2 4
8 4 2 5
9 9 9 10
10 10 9 11
11 11 9 15
12 15 15 16
13 16 15 17
14 12 11 12
15 13 11 13
16 14 11 14
17 19 19 20
18 20 19 21
19 21 19 22
20 17 17 18
21 18 17 19

Angles

1 9 5 7 8
2 10 5 7 9
3 15 8 7 9
4 4 2 5 6
5 5 2 5 7
6 11 6 5 7
7 1 1 2 3
8 2 1 2 4
9 3 1 2 5
10 6 3 2 4
11 7 3 2 5
12 8 4 2 5
13 12 7 9 10
14 13 7 9 11
15 14 7 9 15
16 21 10 9 11
17 22 10 9 15
18 23 11 9 15
19 19 9 15 16
20 20 9 15 17
21 29 16 15 17
22 16 9 11 12
23 17 9 11 13
24 18 9 11 14
25 24 12 11 13
26 25 12 11 14
27 26 13 11 14
28 30 17 19 20
29 31 17 19 21
30 32 17 19 22
31 34 20 19 21
32 35 20 19 22
33 36 21 19 22
34 27 15 17 18
35 28 15 17 19
36 33 18 17 19

Dihedrals

1 6 2 7 5 6
2 13 5 7 9 10
3 14 5 7 9 11
4 15 5 7 9 11
5 16 5 7 9 11
6 17 5 7 9 15
7 18 5 7 9 15
8 30 8 7 9 10
9 31 8 7 9 11
10 32 8 7 9 15
11 4 2 5 7 8
12 5 2 5 7 9
13 20 6 5 7 8
14 21 6 5 7 8
15 22 6 5 7 9
16 1 1 2 5 6
17 2 1 2 5 6
18 3 1 2 5 7
19 7 3 2 5 6
20 8 3 2 5 6
21 9 3 2 5 7
22 10 4 2 5 6
23 11 4 2 5 6
24 12 4 2 5 7
25 19 5 9 7 8
26 23 7 9 11 12
27 24 7 9 11 13
28 25 7 9 11 14
29 26 7 9 15 16
30 27 7 9 15 17
31 28 7 9 15 17
32 29 7 9 15 17
33 36 10 9 11 12
34 37 10 9 11 13
35 38 10 9 11 14
36 39 10 9 15 16
37 40 10 9 15 16
38 41 10 9 15 17
39 42 11 9 15 16
40 43 11 9 15 17
41 44 11 9 15 17
42 45 11 9 15 17
43 46 15 9 11 12
44 47 15 9 11 13
45 48 15 9 11 14
46 33 9 15 17 18
47 34 9 15 17 19
48 53 16 15 17 18
49 54 16 15 17 18
50 55 16 15 17 19
51 52 15 19 17 18
52 35 9 17 15 16
53 49 15 17 19 20
54 50 15 17 19 21
55 51 15 17 19 22
56 56 18 17 19 20
57 57 18 17 19 21
58 58 18 17 19 22
