LAMMPS data file via write_data, version 23 Jun 2022, timestep = 1000000

22 atoms
7 atom types
21 bonds
21 bond types
36 angles
36 angle types
58 dihedrals
58 dihedral types

-25 25 xlo xhi
-25 25 ylo yhi
-25 25 zlo zhi

Masses

1 1.008
2 12.01
3 12.01
4 16
5 14.01
6 1.008
7 1.008

Atoms # full

3 1 1 0.1123 1.4044290334884304 -0.08159469221572437 -2.347131984355586 0 0 0
7 2 5 -0.4157 2.920865438960893 0.8542731871552972 -4.20086451344167 0 0 0
1 1 1 0.1123 0.31483395307160084 0.07741835943401011 -3.88995536889818 0 0 0
5 1 3 0.5972 1.8259122145511517 1.4749954365478166 -3.7402376428458903 0 0 0
2 1 2 -0.3662 0.7913097467140628 0.5572303962134224 -3.066252259966686 0 0 0
4 1 1 0.1123 0.20413892787709412 1.0874239658097855 -2.422134892557452 0 0 0
8 2 6 0.2719 3.1044252744215766 -0.049663790442565574 -3.85198815863068 0 0 0
10 2 7 0.0823 3.6968552057708886 2.4559286598344774 -5.355938305830081 0 0 0
13 2 1 0.0603 5.837165225541361 1.212577774963918 -3.62705161925053 0 0 0
9 2 2 0.0337 4.076183574611026 1.5615742522569327 -4.851725911889793 0 0 0
6 1 4 -0.5679 1.6421327079732622 2.659356788732157 -3.942694966695986 0 0 0
15 2 3 0.5973000000000001 4.68074703681108 0.7578222620407467 -5.956920074521064 0 0 0
14 2 1 0.0603 5.809753441711408 2.826448226383563 -3.9899521212069726 0 0 0
16 2 4 -0.5679 4.778986958569926 -0.4626278317157902 -5.864829674531165 0 0 0
21 3 7 0.09760000000000001 4.386076561605403 0.7683491896452194 -8.891403782793175 0 0 0
12 2 1 0.0603 4.594041100526562 2.055272223837372 -2.848106475513574 0 0 0
20 3 7 0.09760000000000001 5.563435441207291 -0.2542533714317943 -8.359146101287328 0 0 0
11 2 2 -0.1825 5.110209934643279 1.9105203924787948 -3.7617639597206467 0 0 0
19 3 2 -0.149 5.3027281861440265 0.7370872983490198 -8.351341709876905 0 0 0
18 3 6 0.2719 4.9640928658652195 2.3691932360017707 -7.08102779550626 0 0 0
17 3 5 -0.4157 5.078625202990976 1.3498418908909877 -7.093782696347809 0 0 0
22 3 7 0.09760000000000001 6.097696631003795 1.273051558210382 -8.9712175485607 0 0 0

Velocities

3 -0.0359638968016355 -0.004774260141405412 -0.01644683475635338
7 0.0013194240427537168 -0.005094326252282856 0.005172867004382399
1 0.015088265830466616 -0.01046160824158401 0.0024845617113450815
5 -0.011484251230599945 -0.0009609028888421727 -0.0052331591847284325
2 0.00023248585237714016 -0.0025690009422493503 0.0007358400504264513
4 -0.0038645827182725826 0.008994690098267168 0.0002733204706872819
8 0.00527473422028142 -0.011984973396237938 0.02320678991518583
10 -0.004670195341421656 0.005331208548895773 0.0032364130944305064
13 -0.003632886335460442 -0.004200282725264147 0.026873483517922223
9 0.008526625608513385 -0.0026031149032887837 0.0031348482524794757
6 -0.001957538703915347 -0.00805741914798533 -1.1238928702682902e-05
15 -0.0002340101532362813 -0.0016239664831340197 -0.00021056070420006115
14 0.03342060498498873 -0.013369406014246554 -0.009155063717784136
16 -7.044304519403287e-05 -0.0020981013103301338 -0.0014774519528046892
21 0.0034498159807584464 0.01602748705991589 -0.013686236913818418
12 0.004132194259157059 0.036711312850224956 -0.04006112353533053
20 -0.006828288374303894 0.006869779183525752 -0.006510729012863563
11 -0.0039095046146837955 -0.007873356297043322 -0.004512646695035767
19 0.0020575701270199196 -0.003617308342553737 -0.0068642090530013225
18 0.01654285355549438 0.016972111436349035 -0.011333383822150888
17 -0.0059878918240756 0.010895215113764196 -0.0028940399175396074
22 0.013019858920071757 -0.004714937426474601 -0.016991151640871324

Bonds

1 7 7 8
2 8 7 9
3 1 1 2
4 5 5 6
5 6 5 7
6 2 2 3
7 3 2 4
8 4 2 5
9 9 9 10
10 10 9 11
11 11 9 15
12 15 15 16
13 16 15 17
14 12 11 12
15 13 11 13
16 14 11 14
17 19 19 20
18 20 19 21
19 21 19 22
20 17 17 18
21 18 17 19

Angles

1 9 5 7 8
2 10 5 7 9
3 15 8 7 9
4 4 2 5 6
5 5 2 5 7
6 11 6 5 7
7 1 1 2 3
8 2 1 2 4
9 3 1 2 5
10 6 3 2 4
11 7 3 2 5
12 8 4 2 5
13 12 7 9 10
14 13 7 9 11
15 14 7 9 15
16 21 10 9 11
17 22 10 9 15
18 23 11 9 15
19 19 9 15 16
20 20 9 15 17
21 29 16 15 17
22 16 9 11 12
23 17 9 11 13
24 18 9 11 14
25 24 12 11 13
26 25 12 11 14
27 26 13 11 14
28 30 17 19 20
29 31 17 19 21
30 32 17 19 22
31 34 20 19 21
32 35 20 19 22
33 36 21 19 22
34 27 15 17 18
35 28 15 17 19
36 33 18 17 19

Dihedrals

1 6 2 7 5 6
2 13 5 7 9 10
3 14 5 7 9 11
4 15 5 7 9 11
5 16 5 7 9 11
6 17 5 7 9 15
7 18 5 7 9 15
8 30 8 7 9 10
9 31 8 7 9 11
10 32 8 7 9 15
11 4 2 5 7 8
12 5 2 5 7 9
13 20 6 5 7 8
14 21 6 5 7 8
15 22 6 5 7 9
16 1 1 2 5 6
17 2 1 2 5 6
18 3 1 2 5 7
19 7 3 2 5 6
20 8 3 2 5 6
21 9 3 2 5 7
22 10 4 2 5 6
23 11 4 2 5 6
24 12 4 2 5 7
25 19 5 9 7 8
26 23 7 9 11 12
27 24 7 9 11 13
28 25 7 9 11 14
29 26 7 9 15 16
30 27 7 9 15 17
31 28 7 9 15 17
32 29 7 9 15 17
33 36 10 9 11 12
34 37 10 9 11 13
35 38 10 9 11 14
36 39 10 9 15 16
37 40 10 9 15 16
38 41 10 9 15 17
39 42 11 9 15 16
40 43 11 9 15 17
41 44 11 9 15 17
42 45 11 9 15 17
43 46 15 9 11 12
44 47 15 9 11 13
45 48 15 9 11 14
46 33 9 15 17 18
47 34 9 15 17 19
48 53 16 15 17 18
49 54 16 15 17 18
50 55 16 15 17 19
51 52 15 19 17 18
52 35 9 17 15 16
53 49 15 17 19 20
54 50 15 17 19 21
55 51 15 17 19 22
56 56 18 17 19 20
57 57 18 17 19 21
58 58 18 17 19 22
