LAMMPS data file via write_data, version 23 Jun 2022, timestep = 1000000

22 atoms
7 atom types
21 bonds
21 bond types
36 angles
36 angle types
58 dihedrals
58 dihedral types

-25 25 xlo xhi
-25 25 ylo yhi
-25 25 zlo zhi

Masses

1 1.008
2 12.01
3 12.01
4 16
5 14.01
6 1.008
7 1.008

Atoms # full

3 1 1 0.1123 1.4465140436288317 -0.39596315806334587 -2.5738853221360696 0 0 0
7 2 5 -0.4157 2.953696017130568 0.7597503681310614 -4.086471224881287 0 0 0
1 1 1 0.1123 -0.007860255171578836 0.2671132585427938 -3.5097365102603497 0 0 0
5 1 3 0.5972 1.8295683584372275 1.4076096534652485 -3.635841649767507 0 0 0
2 1 2 -0.3662 0.8598247561097357 0.5008432547147753 -2.9380699934305343 0 0 0
4 1 1 0.1123 0.4798950727146579 1.1904433626972333 -2.087601515281801 0 0 0
8 2 6 0.2719 3.152876002731372 -0.14339727071630357 -3.809230678133832 0 0 0
10 2 7 0.0823 3.6491670623356476 2.3318404689841787 -5.163134641588201 0 0 0
13 2 1 0.0603 5.487653131960896 0.843448455478907 -3.5011505910674434 0 0 0
9 2 2 0.0337 4.003350729261433 1.4426537760721463 -4.852402104789885 0 0 0
6 1 4 -0.5679 1.6218964561365798 2.587683912062077 -3.8801225800365797 0 0 0
15 2 3 0.5973000000000001 4.581317889446786 0.5733716178386853 -5.970044090379846 0 0 0
14 2 1 0.0603 5.96458620340356 2.301889085467975 -4.391205369435477 0 0 0
16 2 4 -0.5679 4.723090077319434 -0.6434534339535927 -5.760626754651614 0 0 0
21 3 7 0.09760000000000001 4.646242490381298 0.16077652213416221 -8.773003690102977 0 0 0
12 2 1 0.0603 4.76455732804153 2.433433963912878 -3.1385582441766493 0 0 0
20 3 7 0.09760000000000001 6.280990079975503 0.18260214194847574 -8.201380980732615 0 0 0
11 2 2 -0.1825 5.092860222132452 1.8061787652931802 -3.8903796198941554 0 0 0
19 3 2 -0.149 5.403228978643257 0.6567571089935494 -8.39013139532891 0 0 0
18 3 6 0.2719 4.70418794528586 2.1029172824285856 -7.1422955227026375 0 0 0
17 3 5 -0.4157 4.841733705255734 1.1915339505799833 -7.132162493658227 0 0 0
22 3 7 0.09760000000000001 5.576862503877018 1.4816277307778938 -9.152608558555022 0 0 0

Velocities

3 -0.007558506951245627 -0.007909747460403984 -0.007433221755460568
7 0.006928580174215929 -0.0010045845244506804 -0.0076091561680899575
1 0.017133175740619882 0.013040779550067045 0.009045405839633253
5 0.006473352396784768 0.007243611246232135 -0.001841987652463494
2 -0.0012235299164053343 0.00878298465865915 0.006754405002119883
4 -0.015798214958252545 0.008635451368980593 -0.0034489467466820136
8 0.009541413947613783 0.00562492507441867 -0.005675104267738311
10 0.004800303105677974 0.022740317975753415 0.010078515315552195
13 -0.01245138245959794 -0.016297209590404545 -0.019430974055066406
9 0.004837334273539221 0.0026181982508954827 -0.0050619945112362645
6 0.0021063879739720735 0.0014046137238625913 0.002470870394677846
15 0.003352561814085705 0.00175023245864356 -0.0009468905492478853
14 -0.01734490785656897 0.0141193824034887 0.005856651231564106
16 0.004169226910307117 0.0032406694039529417 -0.00466527422320967
21 0.026125415295611052 0.017944382451932576 0.005016060297752374
12 -0.03518639286907661 0.003302553604890555 -0.02085452346217907
20 -0.003951939436523115 0.036663633680608425 0.005183490388900908
11 0.003917170284760458 0.001029506911849292 -0.004003995599768878
19 -0.0065204050557878404 -0.008392607058664448 -0.004319941687082985
18 -0.0029247031978812715 0.01461370619166628 -0.010164223160841994
17 -0.00012944745434224938 0.004742418168475621 -0.0030011877494326693
22 0.003102444667785243 0.01814227447700198 0.03261591145002337

Bonds

1 7 7 8
2 8 7 9
3 1 1 2
4 5 5 6
5 6 5 7
6 2 2 3
7 3 2 4
8 4 2 5
9 9 9 10
10 10 9 11
11 11 9 15
12 15 15 16
13 16 15 17
14 12 11 12
15 13 11 13
16 14 11 14
17 19 19 20
18 20 19 21
19 21 19 22
20 17 17 18
21 18 17 19

Angles

1 9 5 7 8
2 10 5 7 9
3 15 8 7 9
4 4 2 5 6
5 5 2 5 7
6 11 6 5 7
7 1 1 2 3
8 2 1 2 4
9 3 1 2 5
10 6 3 2 4
11 7 3 2 5
12 8 4 2 5
13 12 7 9 10
14 13 7 9 11
15 14 7 9 15
16 21 10 9 11
17 22 10 9 15
18 23 11 9 15
19 19 9 15 16
20 20 9 15 17
21 29 16 15 17
22 16 9 11 12
23 17 9 11 13
24 18 9 11 14
25 24 12 11 13
26 25 12 11 14
27 26 13 11 14
28 30 17 19 20
29 31 17 19 21
30 32 17 19 22
31 34 20 19 21
32 35 20 19 22
33 36 21 19 22
34 27 15 17 18
35 28 15 17 19
36 33 18 17 19

Dihedrals

1 6 2 7 5 6
2 13 5 7 9 10
3 14 5 7 9 11
4 15 5 7 9 11
5 16 5 7 9 11
6 17 5 7 9 15
7 18 5 7 9 15
8 30 8 7 9 10
9 31 8 7 9 11
10 32 8 7 9 15
11 4 2 5 7 8
12 5 2 5 7 9
13 20 6 5 7 8
14 21 6 5 7 8
15 22 6 5 7 9
16 1 1 2 5 6
17 2 1 2 5 6
18 3 1 2 5 7
19 7 3 2 5 6
20 8 3 2 5 6
21 9 3 2 5 7
22 10 4 2 5 6
23 11 4 2 5 6
24 12 4 2 5 7
25 19 5 9 7 8
26 23 7 9 11 12
27 24 7 9 11 13
28 25 7 9 11 14
29 26 7 9 15 16
30 27 7 9 15 17
31 28 7 9 15 17
32 29 7 9 15 17
33 36 10 9 11 12
34 37 10 9 11 13
35 38 10 9 11 14
36 39 10 9 15 16
37 40 10 9 15 16
38 41 10 9 15 17
39 42 11 9 15 16
40 43 11 9 15 17
41 44 11 9 15 17
42 45 11 9 15 17
43 46 15 9 11 12
44 47 15 9 11 13
45 48 15 9 11 14
46 33 9 15 17 18
47 34 9 15 17 19
48 53 16 15 17 18
49 54 16 15 17 18
50 55 16 15 17 19
51 52 15 19 17 18
52 35 9 17 15 16
53 49 15 17 19 20
54 50 15 17 19 21
55 51 15 17 19 22
56 56 18 17 19 20
57 57 18 17 19 21
58 58 18 17 19 22
