LAMMPS data file via write_data, version 23 Jun 2022, timestep = 1000000

22 atoms
7 atom types
21 bonds
21 bond types
36 angles
36 angle types
58 dihedrals
58 dihedral types

-25 25 xlo xhi
-25 25 ylo yhi
-25 25 zlo zhi

Masses

1 1.008
2 12.01
3 12.01
4 16
5 14.01
6 1.008
7 1.008

Atoms # full

3 1 1 0.1123 1.330069217785469 -0.2633826830010968 -2.4773685686602165 0 0 0
7 2 5 -0.4157 2.904583741088334 0.8172210348813095 -4.121807143737909 0 0 0
1 1 1 0.1123 0.13004941216246688 0.16916807875014703 -3.6593884974359536 0 0 0
5 1 3 0.5972 1.8446334938333926 1.4407088283162817 -3.682242227428882 0 0 0
2 1 2 -0.3662 0.8461513240305254 0.636602905468755 -2.9467194293158596 0 0 0
4 1 1 0.1123 0.24924127850171313 1.2124400354909406 -2.392727251304888 0 0 0
8 2 6 0.2719 3.082462403080778 -0.11689988243588216 -3.8593100173311066 0 0 0
10 2 7 0.0823 3.56283255398791 2.380993799331975 -5.33173229204375 0 0 0
13 2 1 0.0603 5.456882306051327 0.8993299463682307 -3.341199016313698 0 0 0
9 2 2 0.0337 3.972223694266633 1.461541508418204 -4.845069524179712 0 0 0
6 1 4 -0.5679 1.5894747559241198 2.5845610007826143 -3.956071188630219 0 0 0
15 2 3 0.5973000000000001 4.5269791987447485 0.5667480204741318 -5.950578560183704 0 0 0
14 2 1 0.0603 5.890513394167395 2.3460456475048175 -4.2370365634609115 0 0 0
16 2 4 -0.5679 4.654532996347685 -0.6476312119715837 -5.810762085209354 0 0 0
21 3 7 0.09760000000000001 4.572332912644506 -0.11114691350167119 -8.737145071785093 0 0 0
12 2 1 0.0603 4.637562412272885 2.5210471942829944 -3.0814826140523186 0 0 0
20 3 7 0.09760000000000001 6.304921271179011 -0.03685625507112629 -8.110487849233039 0 0 0
11 2 2 -0.1825 5.0109814371722505 1.8424439631288518 -3.8584125256207695 0 0 0
19 3 2 -0.149 5.395418841824398 0.5383915454033608 -8.294646733121077 0 0 0
18 3 6 0.2719 4.899414206651702 2.223762821445229 -6.904785723316708 0 0 0
17 3 5 -0.4157 4.885016433113338 1.1803784243227016 -7.067582274384724 0 0 0
22 3 7 0.09760000000000001 5.665327296586346 1.332854288604246 -8.880339961441317 0 0 0

Velocities

3 -0.019215045422129096 0.015565447334160184 0.017244383288731485
7 -0.000904746215248973 -0.0011347956901342656 -0.006592892836493362
1 0.014420118590966802 0.0034247942535953627 -0.0024330266260564814
5 -0.0011456991620737735 0.003465736611882389 0.0010719055097874427
2 0.004495850581949077 0.0031072435507594784 -0.0010486675489427345
4 0.026685043969679367 0.014169416756531241 0.003207172988095617
8 -0.017793480817420302 -0.016618322628252177 -0.016935500842389727
10 -0.003285420310269791 0.0010144704419168895 -0.005464374220844021
13 -0.0070875605396653624 0.01256818565671154 0.002511135109334676
9 0.009767764642449626 -0.0027160486277846914 -0.0017566895676633873
6 -0.004021403600909766 -0.0015407100755036353 -0.0019143966367364987
15 -0.0034096468752100634 -0.003373146587012662 0.0011577680853809284
14 -0.0025707348733555436 -0.011195923450992932 0.010918716931985345
16 -0.00481286257836284 0.004047723877347108 0.00015221826756196062
21 0.013156474490454106 -0.021776889279189166 -0.000990726453316531
12 -0.01711874087416755 -0.0076794379712470835 -0.0008918341850976067
20 0.0012984288545870551 -0.0037145678049431636 -0.0015506051726447959
11 -0.006571603550653335 0.008645057554405887 6.85559800628554e-05
19 -0.0006161375688485443 0.0011810810427980518 0.0011716016429899464
18 -0.018079372845498008 0.008732744231968534 0.00041823534947720703
17 0.0014295120051239743 0.0014446382193149705 -0.003879108148512909
22 -0.0038708813765104644 -0.021145670804753325 0.0003922132502799855

Bonds

1 7 7 8
2 8 7 9
3 1 1 2
4 5 5 6
5 6 5 7
6 2 2 3
7 3 2 4
8 4 2 5
9 9 9 10
10 10 9 11
11 11 9 15
12 15 15 16
13 16 15 17
14 12 11 12
15 13 11 13
16 14 11 14
17 19 19 20
18 20 19 21
19 21 19 22
20 17 17 18
21 18 17 19

Angles

1 9 5 7 8
2 10 5 7 9
3 15 8 7 9
4 4 2 5 6
5 5 2 5 7
6 11 6 5 7
7 1 1 2 3
8 2 1 2 4
9 3 1 2 5
10 6 3 2 4
11 7 3 2 5
12 8 4 2 5
13 12 7 9 10
14 13 7 9 11
15 14 7 9 15
16 21 10 9 11
17 22 10 9 15
18 23 11 9 15
19 19 9 15 16
20 20 9 15 17
21 29 16 15 17
22 16 9 11 12
23 17 9 11 13
24 18 9 11 14
25 24 12 11 13
26 25 12 11 14
27 26 13 11 14
28 30 17 19 20
29 31 17 19 21
30 32 17 19 22
31 34 20 19 21
32 35 20 19 22
33 36 21 19 22
34 27 15 17 18
35 28 15 17 19
36 33 18 17 19

Dihedrals

1 6 2 7 5 6
2 13 5 7 9 10
3 14 5 7 9 11
4 15 5 7 9 11
5 16 5 7 9 11
6 17 5 7 9 15
7 18 5 7 9 15
8 30 8 7 9 10
9 31 8 7 9 11
10 32 8 7 9 15
11 4 2 5 7 8
12 5 2 5 7 9
13 20 6 5 7 8
14 21 6 5 7 8
15 22 6 5 7 9
16 1 1 2 5 6
17 2 1 2 5 6
18 3 1 2 5 7
19 7 3 2 5 6
20 8 3 2 5 6
21 9 3 2 5 7
22 10 4 2 5 6
23 11 4 2 5 6
24 12 4 2 5 7
25 19 5 9 7 8
26 23 7 9 11 12
27 24 7 9 11 13
28 25 7 9 11 14
29 26 7 9 15 16
30 27 7 9 15 17
31 28 7 9 15 17
32 29 7 9 15 17
33 36 10 9 11 12
34 37 10 9 11 13
35 38 10 9 11 14
36 39 10 9 15 16
37 40 10 9 15 16
38 41 10 9 15 17
39 42 11 9 15 16
40 43 11 9 15 17
41 44 11 9 15 17
42 45 11 9 15 17
43 46 15 9 11 12
44 47 15 9 11 13
45 48 15 9 11 14
46 33 9 15 17 18
47 34 9 15 17 19
48 53 16 15 17 18
49 54 16 15 17 18
50 55 16 15 17 19
51 52 15 19 17 18
52 35 9 17 15 16
53 49 15 17 19 20
54 50 15 17 19 21
55 51 15 17 19 22
56 56 18 17 19 20
57 57 18 17 19 21
58 58 18 17 19 22
