LAMMPS data file via write_data, version 23 Jun 2022, timestep = 1000000

22 atoms
7 atom types
21 bonds
21 bond types
36 angles
36 angle types
58 dihedrals
58 dihedral types

-25 25 xlo xhi
-25 25 ylo yhi
-25 25 zlo zhi

Masses

1 1.008
2 12.01
3 12.01
4 16
5 14.01
6 1.008
7 1.008

Atoms # full

3 1 1 0.1123 1.3173561981081774 -0.35592407968673945 -2.5184387264056944 0 0 0
7 2 5 -0.4157 2.924902201320619 0.7770898823166569 -4.17750247265829 0 0 0
1 1 1 0.1123 0.0453349417660881 0.3530814748805619 -3.7644553788282837 0 0 0
5 1 3 0.5972 1.857506938801006 1.453790727439605 -3.689776627107696 0 0 0
2 1 2 -0.3662 0.7986474881950283 0.5492695591994385 -3.0089981593960955 0 0 0
4 1 1 0.1123 0.34270426510230473 1.2039605139162328 -2.1714321611436205 0 0 0
8 2 6 0.2719 3.0548412868800217 -0.2524457492120479 -3.905180085473599 0 0 0
10 2 7 0.0823 3.5646406779021476 2.415205376826827 -5.264917270515857 0 0 0
13 2 1 0.0603 5.470626604492617 0.9794063504903097 -3.3605660972569553 0 0 0
9 2 2 0.0337 4.023804184303675 1.453602464270915 -4.892921785624663 0 0 0
6 1 4 -0.5679 1.5455888178100754 2.6285137211086336 -3.948229654375033 0 0 0
15 2 3 0.5973000000000001 4.548993244836971 0.584286050331333 -6.018083973678042 0 0 0
14 2 1 0.0603 6.000828080683761 2.238026528098095 -4.416071039242871 0 0 0
16 2 4 -0.5679 4.600224593662376 -0.6477011180181977 -5.78601903222504 0 0 0
21 3 7 0.09760000000000001 4.657434249042384 -0.06960880668411845 -8.76161134370026 0 0 0
12 2 1 0.0603 4.696429745534465 2.576635194186073 -3.1559577544684188 0 0 0
20 3 7 0.09760000000000001 6.269883725533845 -0.038262094694953536 -7.919422074254308 0 0 0
11 2 2 -0.1825 5.069610040214182 1.8977930920360695 -3.8978878314468832 0 0 0
19 3 2 -0.149 5.4517052267638695 0.5247149225119421 -8.324117977325495 0 0 0
18 3 6 0.2719 4.704945439487471 2.175551158421337 -7.356578622432298 0 0 0
17 3 5 -0.4157 4.87000532870783 1.2205780592717828 -7.137337027299145 0 0 0
22 3 7 0.09760000000000001 5.668612824698169 1.1802900990190885 -9.147166951360662 0 0 0

Velocities

3 0.012728681302483289 0.011980516251811173 0.0037925227348578026
7 0.009893824443980796 -0.0023591742329123885 0.006042511722922858
1 0.00743462925774591 -0.01987794603095335 0.022325479400636984
5 0.005360128228617148 -0.007234484935470943 0.0010123470510363841
2 0.0001409542776405052 0.0001745085134693234 0.002168715899209114
4 -0.002079629873312332 -0.019226476962976073 -0.005803846804032502
8 0.0048321004430598065 0.004729274051030574 -0.006652390175220296
10 0.0013497985535619638 0.024946166988454782 0.004638359214466941
13 -0.0006723636719494844 -0.030477057415501448 -0.01048121622404554
9 -0.004479613230755521 0.003042598517983241 -0.0011531981114897554
6 0.0031321599656213587 0.002699321717084556 -0.0027347301011062704
15 -0.00521734410116064 -0.002436008909248019 -0.004268601819657938
14 0.015411930469573653 0.013113481163723946 0.01141639150299694
16 0.004923341405069481 -0.002685333975961381 0.0034322471507643674
21 0.006299426065575876 -0.008907131027151259 -0.020038752298016063
12 -0.0016266841234580977 0.017939502513608742 0.003183568460665279
20 -0.011394648638985712 -0.01662983485893137 0.016932494036697995
11 0.004675254028233417 0.0018823388801288525 0.0030117333755887623
19 -0.00016405189683508267 0.005717526905453482 -0.006176397534001506
18 0.02465775824568366 -0.005897549735337428 -0.006328667824477712
17 0.00880296240425368 -0.005491053201094005 -0.004744402537725785
22 0.022247490868032488 0.03476063374830736 0.004016161751270963

Bonds

1 7 7 8
2 8 7 9
3 1 1 2
4 5 5 6
5 6 5 7
6 2 2 3
7 3 2 4
8 4 2 5
9 9 9 10
10 10 9 11
11 11 9 15
12 15 15 16
13 16 15 17
14 12 11 12
15 13 11 13
16 14 11 14
17 19 19 20
18 20 19 21
19 21 19 22
20 17 17 18
21 18 17 19

Angles

1 9 5 7 8
2 10 5 7 9
3 15 8 7 9
4 4 2 5 6
5 5 2 5 7
6 11 6 5 7
7 1 1 2 3
8 2 1 2 4
9 3 1 2 5
10 6 3 2 4
11 7 3 2 5
12 8 4 2 5
13 12 7 9 10
14 13 7 9 11
15 14 7 9 15
16 21 10 9 11
17 22 10 9 15
18 23 11 9 15
19 19 9 15 16
20 20 9 15 17
21 29 16 15 17
22 16 9 11 12
23 17 9 11 13
24 18 9 11 14
25 24 12 11 13
26 25 12 11 14
27 26 13 11 14
28 30 17 19 20
29 31 17 19 21
30 32 17 19 22
31 34 20 19 21
32 35 20 19 22
33 36 21 19 22
34 27 15 17 18
35 28 15 17 19
36 33 18 17 19

Dihedrals

1 6 2 7 5 6
2 13 5 7 9 10
3 14 5 7 9 11
4 15 5 7 9 11
5 16 5 7 9 11
6 17 5 7 9 15
7 18 5 7 9 15
8 30 8 7 9 10
9 31 8 7 9 11
10 32 8 7 9 15
11 4 2 5 7 8
12 5 2 5 7 9
13 20 6 5 7 8
14 21 6 5 7 8
15 22 6 5 7 9
16 1 1 2 5 6
17 2 1 2 5 6
18 3 1 2 5 7
19 7 3 2 5 6
20 8 3 2 5 6
21 9 3 2 5 7
22 10 4 2 5 6
23 11 4 2 5 6
24 12 4 2 5 7
25 19 5 9 7 8
26 23 7 9 11 12
27 24 7 9 11 13
28 25 7 9 11 14
29 26 7 9 15 16
30 27 7 9 15 17
31 28 7 9 15 17
32 29 7 9 15 17
33 36 10 9 11 12
34 37 10 9 11 13
35 38 10 9 11 14
36 39 10 9 15 16
37 40 10 9 15 16
38 41 10 9 15 17
39 42 11 9 15 16
40 43 11 9 15 17
41 44 11 9 15 17
42 45 11 9 15 17
43 46 15 9 11 12
44 47 15 9 11 13
45 48 15 9 11 14
46 33 9 15 17 18
47 34 9 15 17 19
48 53 16 15 17 18
49 54 16 15 17 18
50 55 16 15 17 19
51 52 15 19 17 18
52 35 9 17 15 16
53 49 15 17 19 20
54 50 15 17 19 21
55 51 15 17 19 22
56 56 18 17 19 20
57 57 18 17 19 21
58 58 18 17 19 22
