LAMMPS data file via write_data, version 23 Jun 2022, timestep = 1000000

1 atoms
1 atom types

-5 5 xlo xhi
-5 5 ylo yhi
-0.1 0.1 zlo zhi

Masses

1 1

Atoms # atomic

1 1 -0.533507275452192 1.4357225503874669 0 0 0 0

Velocities

1 -0.3386993916756373 -0.09538779165560185 0
