LAMMPS data file via write_data, version 23 Jun 2022, timestep = 1000000

1 atoms
1 atom types

-5 5 xlo xhi
-5 5 ylo yhi
-0.1 0.1 zlo zhi

Masses

1 1

Atoms # atomic

1 1 -0.5436025834068214 1.4758280794996221 0 0 0 0

Velocities

1 -0.06939340427781276 -0.0452196901101314 0
