LAMMPS data file via write_data, version 23 Jun 2022, timestep = 1000000

1 atoms
1 atom types

-5 5 xlo xhi
-5 5 ylo yhi
-0.1 0.1 zlo zhi

Masses

1 1

Atoms # atomic

1 1 -0.5452842219524494 1.4600643545539285 0 0 0 0

Velocities

1 0.2553380715315661 0.16609518234238418 0
