LAMMPS data file via write_data, version 23 Jun 2022, timestep = 1000000

1 atoms
1 atom types

-5 5 xlo xhi
-5 5 ylo yhi
-0.1 0.1 zlo zhi

Masses

1 1

Atoms # atomic

1 1 -0.4870629701147892 1.4919142308684825 0 0 0 0

Velocities

1 -0.6281755190762329 0.38330514058601045 0
