LAMMPS data file via write_data, version 23 Jun 2022, timestep = 1000000

1 atoms
1 atom types

-5 5 xlo xhi
-5 5 ylo yhi
-0.1 0.1 zlo zhi

Masses

1 1

Atoms # atomic

1 1 -0.5141054472914596 1.4927206896518226 0 0 0 0

Velocities

1 -0.07788316128254348 0.8670814085722364 0
