LAMMPS data file via write_data, version 23 Jun 2022, timestep = 1000000

1 atoms
1 atom types

-5 5 xlo xhi
-5 5 ylo yhi
-0.1 0.1 zlo zhi

Masses

1 1

Atoms # atomic

1 1 -0.4955703067427934 1.507200305008163 0 0 0 0

Velocities

1 0.6640334539842484 0.25892705546115646 0
