LAMMPS data file via write_data, version 23 Jun 2022, timestep = 1000000

1 atoms
1 atom types

-5 5 xlo xhi
-5 5 ylo yhi
-0.1 0.1 zlo zhi

Masses

1 1

Atoms # atomic

1 1 -0.5097884605038414 1.4900010991748018 0 0 0 0

Velocities

1 0.15913749979889028 0.63068278090672 0
