LAMMPS data file via write_data, version 23 Jun 2022, timestep = 1000000

1 atoms
1 atom types

-5 5 xlo xhi
-5 5 ylo yhi
-0.1 0.1 zlo zhi

Masses

1 1

Atoms # atomic

1 1 -0.48995388550706254 1.4962200185628183 0 0 0 0

Velocities

1 -0.3431441117731183 -0.23730494469750804 0
