LAMMPS data file via write_data, version 23 Jun 2022, timestep = 1000000

1 atoms
1 atom types

-5 5 xlo xhi
-5 5 ylo yhi
-0.1 0.1 zlo zhi

Masses

1 1

Atoms # atomic

1 1 -0.5248477814362378 1.447921008800852 0 0 0 0

Velocities

1 0.18498296616978654 -0.19020547788371392 0
