LAMMPS data file via write_data, version 23 Jun 2022, timestep = 1000000

1 atoms
1 atom types

-5 5 xlo xhi
-5 5 ylo yhi
-0.1 0.1 zlo zhi

Masses

1 1

Atoms # atomic

1 1 -0.5416853554471508 1.4337130152726096 0 0 0 0

Velocities

1 0.2954418359680289 -0.26225030307514435 0
