LAMMPS data file via write_data, version 23 Jun 2022, timestep = 1000000

1 atoms
1 atom types

-5 5 xlo xhi
-5 5 ylo yhi
-0.1 0.1 zlo zhi

Masses

1 1

Atoms # atomic

1 1 -0.5212919747133192 1.495391704803764 0 0 0 0

Velocities

1 0.1649143929495971 0.08287883994838477 0
