LAMMPS data file via write_data, version 23 Jun 2022, timestep = 1000000

1 atoms
1 atom types

-5 5 xlo xhi
-5 5 ylo yhi
-0.1 0.1 zlo zhi

Masses

1 1

Atoms # atomic

1 1 -0.4601764655204185 1.495362596807261 0 0 0 0

Velocities

1 -0.02431005339929715 -0.12452691197498127 0
