LAMMPS data file via write_data, version 23 Jun 2022, timestep = 1000000

1 atoms
1 atom types

-5 5 xlo xhi
-5 5 ylo yhi
-0.1 0.1 zlo zhi

Masses

1 1

Atoms # atomic

1 1 -0.49129597393489866 1.4760875369032922 0 0 0 0

Velocities

1 0.24136321735852292 0.0264085504855038 0
