LAMMPS data file via write_data, version 23 Jun 2022, timestep = 1000000

1 atoms
1 atom types

-5 5 xlo xhi
-5 5 ylo yhi
-0.1 0.1 zlo zhi

Masses

1 1

Atoms # atomic

1 1 -0.5137970719370951 1.4279528460399311 0 0 0 0

Velocities

1 -0.22624564474103198 0.24446149418400742 0
