LAMMPS data file via write_data, version 23 Jun 2022, timestep = 1000000

1 atoms
1 atom types

-5 5 xlo xhi
-5 5 ylo yhi
-0.1 0.1 zlo zhi

Masses

1 1

Atoms # atomic

1 1 -0.530295923148132 1.4864195538435547 0 0 0 0

Velocities

1 0.37214128338650576 0.3653430369739674 0
