LAMMPS data file via write_data, version 23 Jun 2022, timestep = 1000000

1 atoms
1 atom types

-5 5 xlo xhi
-5 5 ylo yhi
-0.1 0.1 zlo zhi

Masses

1 1

Atoms # atomic

1 1 -0.5203676796180488 1.4572601055974044 0 0 0 0

Velocities

1 -0.25545026592028847 -0.2346591500215648 0
