LAMMPS data file via write_data, version 23 Jun 2022, timestep = 1000000

1 atoms
1 atom types

-5 5 xlo xhi
-5 5 ylo yhi
-0.1 0.1 zlo zhi

Masses

1 1

Atoms # atomic

1 1 -0.5190142759578709 1.4759755815598434 0 0 0 0

Velocities

1 0.044957213310434216 -0.06294178450592539 0
