LAMMPS data file via write_data, version 23 Jun 2022, timestep = 1000000

1 atoms
1 atom types

-5 5 xlo xhi
-5 5 ylo yhi
-0.1 0.1 zlo zhi

Masses

1 1

Atoms # atomic

1 1 -0.48178271311027226 1.4887966965773543 0 0 0 0

Velocities

1 0.004489971393862635 0.4923013046117694 0
