LAMMPS data file via write_data, version 23 Jun 2022, timestep = 1000000

1 atoms
1 atom types

-5 5 xlo xhi
-5 5 ylo yhi
-0.1 0.1 zlo zhi

Masses

1 1

Atoms # atomic

1 1 -0.5759962041168728 1.455933657324468 0 0 0 0

Velocities

1 -0.5954890995292947 -0.1120312727958482 0
