LAMMPS data file via write_data, version 23 Jun 2022, timestep = 1000000

1 atoms
1 atom types

-5 5 xlo xhi
-5 5 ylo yhi
-0.1 0.1 zlo zhi

Masses

1 1

Atoms # atomic

1 1 -0.48445034002439485 1.5193666687340166 0 0 0 0

Velocities

1 0.31717378686334613 0.5239567584871387 0
