LAMMPS data file via write_data, version 23 Jun 2022, timestep = 1000000

1 atoms
1 atom types

-5 5 xlo xhi
-5 5 ylo yhi
-0.1 0.1 zlo zhi

Masses

1 1

Atoms # atomic

1 1 -0.5120307989664856 1.4112774226572764 0 0 0 0

Velocities

1 -0.06508451062480977 0.4722545170109248 0
