LAMMPS data file via write_data, version 23 Jun 2022, timestep = 1000000

1 atoms
1 atom types

-5 5 xlo xhi
-5 5 ylo yhi
-0.1 0.1 zlo zhi

Masses

1 1

Atoms # atomic

1 1 -0.48336650564085 1.490896956168222 0 0 0 0

Velocities

1 0.11071903185374302 -0.5001912055222015 0
