LAMMPS data file via write_data, version 23 Jun 2022, timestep = 1000000

1 atoms
1 atom types

-5 5 xlo xhi
-5 5 ylo yhi
-0.1 0.1 zlo zhi

Masses

1 1

Atoms # atomic

1 1 -0.5206253877171859 1.471007938764678 0 0 0 0

Velocities

1 0.20596023558541662 -0.45669322322575984 0
