LAMMPS data file via write_data, version 23 Jun 2022, timestep = 1000000

1 atoms
1 atom types

-5 5 xlo xhi
-5 5 ylo yhi
-0.1 0.1 zlo zhi

Masses

1 1

Atoms # atomic

1 1 -0.4780399520629343 1.5183387723789128 0 0 0 0

Velocities

1 -0.4709727671071341 0.09306922651725869 0
