LAMMPS data file via write_data, version 23 Jun 2022, timestep = 1000000

1 atoms
1 atom types

-5 5 xlo xhi
-5 5 ylo yhi
-0.1 0.1 zlo zhi

Masses

1 1

Atoms # atomic

1 1 -0.48966747218046147 1.4743095703891793 0 0 0 0

Velocities

1 -0.009773484603031858 -0.31396342345496747 0
