LAMMPS data file via write_data, version 23 Jun 2022, timestep = 1000000

1 atoms
1 atom types

-5 5 xlo xhi
-5 5 ylo yhi
-0.1 0.1 zlo zhi

Masses

1 1

Atoms # atomic

1 1 -0.5211307853743314 1.454755673479531 0 0 0 0

Velocities

1 -0.1412928298027829 -0.0289207044696864 0
