LAMMPS data file via write_data, version 23 Jun 2022, timestep = 1000000

1 atoms
1 atom types

-5 5 xlo xhi
-5 5 ylo yhi
-0.1 0.1 zlo zhi

Masses

1 1

Atoms # atomic

1 1 -0.5660623152544666 1.4429233233704248 0 0 0 0

Velocities

1 -0.1476321270560895 -0.0020663278969606097 0
