LAMMPS data file via write_data, version 23 Jun 2022, timestep = 1000000

1 atoms
1 atom types

-5 5 xlo xhi
-5 5 ylo yhi
-0.1 0.1 zlo zhi

Masses

1 1

Atoms # atomic

1 1 -0.5403605622865962 1.4634430181194051 0 0 0 0

Velocities

1 0.21673739446437185 0.043518360915526764 0
