LAMMPS data file via write_data, version 23 Jun 2022, timestep = 1000000

1 atoms
1 atom types

-5 5 xlo xhi
-5 5 ylo yhi
-0.1 0.1 zlo zhi

Masses

1 1

Atoms # atomic

1 1 -0.5034694274391561 1.487583646842833 0 0 0 0

Velocities

1 0.6552198617124965 -0.2721041615864712 0
