LAMMPS data file via write_data, version 23 Jun 2022, timestep = 1000000

1 atoms
1 atom types

-5 5 xlo xhi
-5 5 ylo yhi
-0.1 0.1 zlo zhi

Masses

1 1

Atoms # atomic

1 1 -0.5030097006487866 1.47973652930491 0 0 0 0

Velocities

1 -0.020194539490970727 0.1172778504540061 0
