LAMMPS data file via write_data, version 23 Jun 2022, timestep = 1000000

1 atoms
1 atom types

-5 5 xlo xhi
-5 5 ylo yhi
-0.1 0.1 zlo zhi

Masses

1 1

Atoms # atomic

1 1 -0.4885373981046417 1.4698220353684608 0 0 0 0

Velocities

1 0.12238639401488338 -0.3501360054024827 0
