LAMMPS data file via write_data, version 23 Jun 2022, timestep = 1000000

1 atoms
1 atom types

-5 5 xlo xhi
-5 5 ylo yhi
-0.1 0.1 zlo zhi

Masses

1 1

Atoms # atomic

1 1 -0.5725172541186185 1.4617454182910945 0 0 0 0

Velocities

1 -0.19214398713189462 -0.08098474561691146 0
