LAMMPS data file via write_data, version 23 Jun 2022, timestep = 1000000

1 atoms
1 atom types

-5 5 xlo xhi
-5 5 ylo yhi
-0.1 0.1 zlo zhi

Masses

1 1

Atoms # atomic

1 1 -0.49734367458181195 1.460118656376799 0 0 0 0

Velocities

1 -0.3245390989716057 -0.40257951290796534 0
