LAMMPS data file via write_data, version 23 Jun 2022, timestep = 1000000

1 atoms
1 atom types

-5 5 xlo xhi
-5 5 ylo yhi
-0.1 0.1 zlo zhi

Masses

1 1

Atoms # atomic

1 1 -0.4844908389414005 1.5171445240309651 0 0 0 0

Velocities

1 -0.30280619422448396 0.3352368251887245 0
