LAMMPS data file via write_data, version 23 Jun 2022, timestep = 1000000

1 atoms
1 atom types

-5 5 xlo xhi
-5 5 ylo yhi
-0.1 0.1 zlo zhi

Masses

1 1

Atoms # atomic

1 1 -0.5282865522211675 1.4129070540216608 0 0 0 0

Velocities

1 0.3597898597819236 -0.5029246750857449 0
