LAMMPS data file via write_data, version 23 Jun 2022, timestep = 1000000

1 atoms
1 atom types

-5 5 xlo xhi
-5 5 ylo yhi
-0.1 0.1 zlo zhi

Masses

1 1

Atoms # atomic

1 1 -0.5155222507463125 1.4984474464930826 0 0 0 0

Velocities

1 -0.4033296450111288 -0.3850550841180298 0
