LAMMPS data file via write_data, version 23 Jun 2022, timestep = 1000000

1 atoms
1 atom types

-5 5 xlo xhi
-5 5 ylo yhi
-0.1 0.1 zlo zhi

Masses

1 1

Atoms # atomic

1 1 -0.500266150868807 1.4911678147336918 0 0 0 0

Velocities

1 0.4177228993865337 -0.08757032648165297 0
